LAMMPS (29 Aug 2024)
OMP_NUM_THREADS environment is not set. Defaulting to 1 thread. (src/comm.cpp:98)
  using 1 OpenMP thread(s) per MPI task
Loaded 1 plugins from C:\Users\durjo\AppData\Local\LAMMPS 64-bit 29Aug2024-MSMPI\plugins
# echo both
# dimension 3
# units           metal
# atom_style      atomic
# boundary        p p p

# read_data       CNT.lmp
# neighbor        2.0 bin
# neigh_modify    delay 0 every 1 check yes

# pair_style      tersoff
# pair_coeff      * * C.tersoff C

# timestep 0.0005
# fix 1 all npt temp 150.0 150.0 0.1 iso 0.0 0.0 .1
# velocity all create 150.0 12345 rot yes mom yes
# thermo 100
# thermo_style custom step temp press lx ly lz
# dump myDump all custom 100 dump.lammpstrj.* id type x y z
# run 120000



######################################################################################



#region          hot block 	INF INF INF INF 1 6
#region          cold block  INF INF INF INF 95 100

#group           left region  hot
#group           right region cold



#####################################################################################

variable kB equal 0.00008617
variable seed_1 equal 12312
variable seed_2 equal 45623
variable seed_3 equal 78934
variable t equal 300.0
variable tlo equal 280.0
variable thi equal 320.0
variable tdamp equal 0.5
variable n_steps_stage_1 equal 10000
variable n_steps_stage_2 equal 50000
variable n_steps_stage_3 equal 100000
variable n_thermo equal 10
variable n_dump equal 100


units           metal
atom_style      atomic
boundary        p p p

read_data       CNT.lmp
Reading data file ...
  orthogonal box = (12 3 0) to (33.001664 22.982204 101.4135)
  2 by 2 by 6 MPI processor grid
  reading atoms ...
  1804 atoms
  read_data CPU = 0.007 seconds
neighbor        2.0 bin
neigh_modify    delay 0 every 1 check yes

pair_style      tersoff
pair_coeff      * * C.tersoff C
Reading tersoff potential file C.tersoff with DATE: 2011-04-26


region          hot block 	INF INF INF INF 1 8
region          cold block  INF INF INF INF 95 102
group           left region  hot
132 atoms in group left
group           right region cold
110 atoms in group right


timestep 0.0005
dump my_dump all custom ${n_dump} dump.lammpstrj id type x y z
dump my_dump all custom 100 dump.lammpstrj id type x y z
velocity all create ${t} ${seed_1} dist gaussian
velocity all create 300 ${seed_1} dist gaussian
velocity all create 300 12312 dist gaussian
compute Tleft left temp
compute Tright right temp








# --- 1st stage ---
# 1st equilibration run
fix nvt_fix all nvt temp ${t} ${t} ${tdamp}
fix nvt_fix all nvt temp 300 ${t} ${tdamp}
fix nvt_fix all nvt temp 300 300 ${tdamp}
fix nvt_fix all nvt temp 300 300 0.5
thermo ${n_thermo}
thermo 10
run ${n_steps_stage_1}
run 10000

CITE-CITE-CITE-CITE-CITE-CITE-CITE-CITE-CITE-CITE-CITE-CITE-CITE

Your simulation uses code contributions which should be cited:

- Type Label Framework: https://doi.org/10.1021/acs.jpcb.3c08419

@Article{Gissinger24,
 author = {Jacob R. Gissinger, Ilia Nikiforov, Yaser Afshar, Brendon Waters, Moon-ki Choi, Daniel S. Karls, Alexander Stukowski, Wonpil Im, Hendrik Heinz, Axel Kohlmeyer, and Ellad B. Tadmor},
 title = {Type Label Framework for Bonded Force Fields in LAMMPS},
 journal = {J. Phys. Chem. B},
 year =    2024,
 volume =  128,
 number =  13,
 pages =   {3282–-3297}
}

CITE-CITE-CITE-CITE-CITE-CITE-CITE-CITE-CITE-CITE-CITE-CITE-CITE

Neighbor list info ...
  update: every = 1 steps, delay = 0 steps, check = yes
  max neighbors/atom: 2000, page size: 100000
  master list distance cutoff = 4.1
  ghost atom cutoff = 4.1
  binsize = 2.05, bins = 11 10 50
  1 neighbor lists, perpetual/occasional/extra = 1 0 0
  (1) pair tersoff, perpetual
      attributes: full, newton on
      pair build: full/bin/atomonly
      stencil: full/bin/3d
      bin: standard
Per MPI rank memory allocation (min/avg/max) = 3.066 | 3.066 | 3.066 Mbytes
   Step          Temp          E_pair         E_mol          TotEng         Press     
         0   300           -14302.909      0             -14232.992      28646.775    
        10   112.29034     -14258.978      0             -14232.808      29251.964    
        20   162.0962      -14270.703      0             -14232.926      27269.298    
        30   131.4895      -14263.481      0             -14232.837      27013.638    
        40   183.22362     -14275.606      0             -14232.905      25052.757    
        50   120.77797     -14260.952      0             -14232.804      24039.002    
        60   183.70104     -14275.682      0             -14232.869      21770.393    
        70   141.76825     -14265.807      0             -14232.767      20640.504    
        80   207.74062     -14281.232      0             -14232.817      18054.546    
        90   153.37681     -14268.455      0             -14232.71       16391.483    
       100   190.92867     -14277.236      0             -14232.739      13525.851    
       110   150.97013     -14267.825      0             -14232.641      11745.342    
       120   195.45438     -14278.212      0             -14232.66       8993.2638    
       130   151.54715     -14267.875      0             -14232.556      7380.8264    
       140   189.64315     -14276.763      0             -14232.565      4871.6803    
       150   146.68398     -14266.647      0             -14232.461      3349.8379    
       160   180.58174     -14274.547      0             -14232.462      1207.4164    
       170   143.85667     -14265.887      0             -14232.361      146.36276    
       180   171.01347     -14272.206      0             -14232.35      -1480.2603    
       190   138.36819     -14264.501      0             -14232.254     -2163.0147    
       200   160.93919     -14269.742      0             -14232.234     -3217.9051    
       210   140.01839     -14264.775      0             -14232.143     -3286.5948    
       220   160.16643     -14269.44       0             -14232.112     -3512.9558    
       230   142.5434      -14265.244      0             -14232.024     -3163.5878    
       240   159.34318     -14269.119      0             -14231.983     -2809.9328    
       250   152.50472     -14267.441      0             -14231.899     -1780.04      
       260   162.09172     -14269.622      0             -14231.845     -736.0232     
       270   160.49089     -14269.168      0             -14231.764      635.03065    
       280   173.08589     -14272.046      0             -14231.707      2071.8247    
       290   161.88506     -14269.348      0             -14231.62       4049.3016    
       300   176.76037     -14272.759      0             -14231.564      6026.8306    
       310   178.49675     -14273.082      0             -14231.482      8158.6232    
       320   178.53863     -14273.026      0             -14231.416      10290.578    
       330   172.49131     -14271.538      0             -14231.338      12663.528    
       340   185.08315     -14274.416      0             -14231.281      14934.785    
       350   175.47198     -14272.098      0             -14231.203      17138.636    
       360   169.43556     -14270.632      0             -14231.144      19183.961    
       370   166.48851     -14269.879      0             -14231.078      21271.97     
       380   173.54306     -14271.47       0             -14231.025      23063.861    
       390   166.00391     -14269.646      0             -14230.958      24715.734    
       400   161.84787     -14268.625      0             -14230.906      25985.617    
       410   154.03603     -14266.742      0             -14230.843      27030.373    
       420   160.32735     -14268.163      0             -14230.798      27738.397    
       430   153.17405     -14266.434      0             -14230.735      28135.548    
       440   153.31849     -14266.419      0             -14230.688      28098.993    
       450   151.87493     -14266.023      0             -14230.628      27878.938    
       460   162.63603     -14268.484      0             -14230.58       27229.236    
       470   161.95649     -14268.261      0             -14230.516      26316.913    
       480   162.37222     -14268.304      0             -14230.462      24959.608    
       490   165.47642     -14268.963      0             -14230.398      23481.641    
       500   178.15987     -14271.865      0             -14230.344      21750.51     
       510   173.12786     -14270.618      0             -14230.27       19845.158    
       520   181.04994     -14272.408      0             -14230.213      17644.646    
       530   176.85341     -14271.355      0             -14230.138      15576.933    
       540   186.98481     -14273.659      0             -14230.081      13198.232    
       550   176.78908     -14271.203      0             -14230.001      10894.458    
       560   181.60011     -14272.266      0             -14229.943      8550.7303    
       570   177.10834     -14271.144      0             -14229.867      6500.7143    
       580   178.89041     -14271.497      0             -14229.806      4362.7415    
       590   166.52637     -14268.54       0             -14229.73       2443.7017    
       600   165.25818     -14268.186      0             -14229.671      712.42786    
       610   160.45831     -14266.996      0             -14229.6       -551.87163    
       620   164.80899     -14267.951      0             -14229.541     -1752.172     
       630   154.0181      -14265.362      0             -14229.467     -2685.1367    
       640   157.64006     -14266.146      0             -14229.407     -3305.4629    
       650   159.29462     -14266.461      0             -14229.337     -3459.1537    
       660   156.40358     -14265.721      0             -14229.27      -3504.5267    
       670   149.99852     -14264.155      0             -14229.197     -3226.8842    
       680   161.99239     -14266.888      0             -14229.135     -2654.7554    
       690   163.55218     -14267.172      0             -14229.055     -1594.9666    
       700   170.26752     -14268.666      0             -14228.984     -339.24094    
       710   171.03589     -14268.762      0             -14228.901      1035.0689    
       720   177.54075     -14270.202      0             -14228.825      2649.9034    
       730   178.55994     -14270.353      0             -14228.738      4670.849     
       740   181.79162     -14271.025      0             -14228.657      6683.9356    
       750   184.43938     -14271.555      0             -14228.571      8753.8741    
       760   187.97939     -14272.295      0             -14228.486      10982.361    
       770   187.58413     -14272.114      0             -14228.397      13313.627    
       780   185.29656     -14271.497      0             -14228.313      15524.146    
       790   176.34661     -14269.322      0             -14228.223      17679.603    
       800   180.41186     -14270.191      0             -14228.145      19745.415    
       810   181.31934     -14270.317      0             -14228.06       21759.572    
       820   174.06539     -14268.544      0             -14227.977      23495.895    
       830   165.41805     -14266.445      0             -14227.894      24999.288    
       840   168.32868     -14267.049      0             -14227.819      26239.95     
       850   166.85099     -14266.623      0             -14227.737      27231.66     
       860   163.73581     -14265.821      0             -14227.661      27812.259    
       870   154.4915      -14263.582      0             -14227.577      28146.759    
       880   162.71708     -14265.43       0             -14227.508      28075.092    
       890   161.72832     -14265.115      0             -14227.423      27811.884    
       900   164.62516     -14265.714      0             -14227.347      27092.285    
       910   160.92504     -14264.764      0             -14227.259      26073.019    
       920   177.6774      -14268.594      0             -14227.185      24685.568    
       930   176.56419     -14268.239      0             -14227.09       23190.931    
       940   177.98402     -14268.485      0             -14227.004      21306.754    
       950   175.78102     -14267.879      0             -14226.912      19326.282    
       960   184.20197     -14269.755      0             -14226.825      17222.833    
       970   190.61584     -14271.156      0             -14226.732      15078.944    
       980   190.12508     -14270.947      0             -14226.637      12759.447    
       990   184.16659     -14269.46       0             -14226.539      10489.355    
      1000   193.95452     -14271.658      0             -14226.456      8190.3399    
      1010   176.18962     -14267.413      0             -14226.351      6145.4421    
      1020   181.47966     -14268.568      0             -14226.273      3992.6164    
      1030   176.19104     -14267.239      0             -14226.177      2203.8353    
      1040   178.3338      -14267.658      0             -14226.097      575.66691    
      1050   165.90727     -14264.667      0             -14226.001     -666.85124    
      1060   167.48868     -14264.96       0             -14225.926     -1897.5121    
      1070   161.39446     -14263.45       0             -14225.836     -2722.9182    
      1080   167.06385     -14264.695      0             -14225.76      -3291.4874    
      1090   162.83177     -14263.618      0             -14225.67      -3411.8155    
      1100   167.53148     -14264.635      0             -14225.59      -3404.7744    
      1110   165.82495     -14264.146      0             -14225.499     -3080.1062    
      1120   172.5645      -14265.634      0             -14225.417     -2517.3618    
      1130   171.02197     -14265.182      0             -14225.324     -1521.9968    
      1140   169.74388     -14264.797      0             -14225.237     -387.90066    
      1150   173.62524     -14265.61       0             -14225.146      1049.4325    
      1160   183.9305      -14267.923      0             -14225.057      2825.7812    
      1170   183.47956     -14267.718      0             -14224.957      4869.9549    
      1180   186.68387     -14268.37       0             -14224.862      6970.6551    
      1190   193.31649     -14269.816      0             -14224.762      9160.252     
      1200   201.34834     -14271.59       0             -14224.665      11357.881    
      1210   191.56118     -14269.199      0             -14224.555      13784.7      
      1220   195.66164     -14270.063      0             -14224.463      15975.65     
      1230   191.74822     -14269.047      0             -14224.359      18133.083    
      1240   189.1903      -14268.356      0             -14224.265      20264.893    
      1250   182.40462     -14266.677      0             -14224.167      22257.079    
      1260   179.21873     -14265.843      0             -14224.075      23941.756    
      1270   183.36733     -14266.718      0             -14223.983      25444.208    
      1280   178.61964     -14265.519      0             -14223.891      26667.941    
      1290   166.35886     -14262.566      0             -14223.795      27538.272    
      1300   170.43868     -14263.437      0             -14223.716      28022.053    
      1310   166.82409     -14262.499      0             -14223.619      28358.812    
      1320   176.62055     -14264.7        0             -14223.538      28256.887    
      1330   168.94745     -14262.81       0             -14223.436      27923.886    
      1340   175.05467     -14264.152      0             -14223.354      27042.403    
      1350   173.74        -14263.743      0             -14223.252      25937.163    
      1360   184.08858     -14266.067      0             -14223.164      24520.457    
      1370   183.67116     -14265.865      0             -14223.06       22918.658    
      1380   184.8502      -14266.045      0             -14222.964      20989.431    
      1390   187.19079     -14266.485      0             -14222.859      19001.269    
      1400   199.74173     -14269.314      0             -14222.763      16845.371    
      1410   197.65524     -14268.715      0             -14222.65       14693.269    
      1420   197.98333     -14268.689      0             -14222.548      12396.507    
      1430   197.94006     -14268.572      0             -14222.441      10098.392    
      1440   194.72897     -14267.721      0             -14222.338      7917.4965    
      1450   192.87073     -14267.183      0             -14222.234      5870.4366    
      1460   193.45174     -14267.221      0             -14222.136      3801.6976    
      1470   182.88505     -14264.652      0             -14222.029      1926.5545    
      1480   183.53843     -14264.714      0             -14221.939      273.58538    
      1490   177.12764     -14263.119      0             -14221.838     -992.38354    
      1500   178.11143     -14263.257      0             -14221.747     -2157.6342    
      1510   175.32707     -14262.511      0             -14221.65      -2983.8005    
      1520   173.15557     -14261.913      0             -14221.558     -3436.5597    
      1530   170.28179     -14261.148      0             -14221.463     -3542.7563    
      1540   175.29535     -14262.227      0             -14221.373     -3483.192     
      1550   175.62309     -14262.205      0             -14221.275     -3119.1897    
      1560   175.79492     -14262.15       0             -14221.18      -2372.8585    
      1570   178.90346     -14262.775      0             -14221.081     -1263.6196    
      1580   187.47225     -14264.676      0             -14220.984      5.0872636    
      1590   189.07494     -14264.942      0             -14220.877      1506.9298    
      1600   194.88573     -14266.193      0             -14220.773      3333.0674    
      1610   203.4435      -14268.079      0             -14220.665      5379.0185    
      1620   205.59493     -14268.468      0             -14220.553      7454.0913    
      1630   203.19378     -14267.797      0             -14220.441      9528.2773    
      1640   201.73057     -14267.347      0             -14220.332      11739.295    
      1650   202.29094     -14267.37       0             -14220.224      13990.295    
      1660   198.61823     -14266.403      0             -14220.114      16283.719    
      1670   203.92135     -14267.537      0             -14220.012      18346.683    
      1680   193.02943     -14264.885      0             -14219.899      20401.1      
      1690   192.30917     -14264.619      0             -14219.8        22298.158    
      1700   189.57391     -14263.878      0             -14219.697      24025.565    
      1710   185.27608     -14262.775      0             -14219.595      25474.445    
      1720   183.84918     -14262.344      0             -14219.497      26708.603    
      1730   181.72575     -14261.75       0             -14219.397      27606.125    
      1740   179.96808     -14261.242      0             -14219.299      28163.106    
      1750   178.08006     -14260.706      0             -14219.203      28310.422    
      1760   168.97139     -14258.482      0             -14219.102      28157.805    
      1770   178.99459     -14260.728      0             -14219.012      27664.805    
      1780   181.8562      -14261.293      0             -14218.91       26954.95     
      1790   181.86586     -14261.192      0             -14218.807      25862.344    
      1800   191.83611     -14263.414      0             -14218.706      24484.002    
      1810   194.3144      -14263.882      0             -14218.595      22914.019    
      1820   196.90587     -14264.378      0             -14218.488      21023.713    
      1830   199.17807     -14264.794      0             -14218.375      18981.653    
      1840   204.84845     -14266.006      0             -14218.265      16849.69     
      1850   209.37701     -14266.945      0             -14218.148      14702.034    
      1860   212.47511     -14267.554      0             -14218.035      12400.538    
      1870   204.09871     -14265.481      0             -14217.915      10073.282    
      1880   206.50032     -14265.934      0             -14217.808      7875.7976    
      1890   202.90148     -14264.979      0             -14217.692      5831.3999    
      1900   200.70049     -14264.361      0             -14217.587      3675.6235    
      1910   191.22639     -14262.039      0             -14217.473      1858.0085    
      1920   196.56387     -14263.185      0             -14217.374      379.92554    
      1930   189.69014     -14261.473      0             -14217.265     -910.55508    
      1940   184.23522     -14260.098      0             -14217.161     -2074.1134    
      1950   189.53634     -14261.236      0             -14217.064     -2964.349     
      1960   181.76518     -14259.316      0             -14216.955     -3326.6231    
      1970   187.3043      -14260.511      0             -14216.858     -3418.5244    
      1980   186.83242     -14260.294      0             -14216.751     -3344.07      
      1990   186.14392     -14260.03       0             -14216.649     -3033.5692    
      2000   186.65176     -14260.044      0             -14216.543     -2224.9596    
      2010   192.25346     -14261.246      0             -14216.44      -1133.2861    
      2020   195.09611     -14261.797      0             -14216.329      124.50785    
      2030   201.13336     -14263.096      0             -14216.22       1559.8846    
      2040   205.44054     -14263.984      0             -14216.105      3348.7615    
      2050   210.60534     -14265.075      0             -14215.992      5249.9872    
      2060   207.80911     -14264.302      0             -14215.871      7312.7063    
      2070   215.37822     -14265.954      0             -14215.759      9411.3241    
      2080   214.32137     -14265.586      0             -14215.637      11693.441    
      2090   216.3386      -14265.941      0             -14215.522      13996.887    
      2100   210.54225     -14264.469      0             -14215.401      16303.189    
      2110   211.57712     -14264.601      0             -14215.291      18277.946    
      2120   204.65082     -14262.868      0             -14215.173      20369.826    
      2130   207.87827     -14263.513      0             -14215.066      22318.734    
      2140   200.15158     -14261.598      0             -14214.951      23964.857    
      2150   196.24322     -14260.581      0             -14214.845      25414.479    
      2160   195.78082     -14260.366      0             -14214.738      26721.984    
      2170   195.03333     -14260.086      0             -14214.632      27564.857    
      2180   184.59692     -14257.547      0             -14214.526      27976.304    
      2190   181.22562     -14256.66       0             -14214.424      28072.996    
      2200   184.44342     -14257.311      0             -14214.325      28000.652    
      2210   185.99566     -14257.567      0             -14214.219      27605.702    
      2220   191.72077     -14258.797      0             -14214.115      26859.011    
      2230   195.20349     -14259.497      0             -14214.003      25891.585    
      2240   203.612       -14261.349      0             -14213.896      24573.098    
      2250   204.3411      -14261.398      0             -14213.775      23036.593    
      2260   208.24374     -14262.197      0             -14213.665      21147.526    
      2270   203.95616     -14261.074      0             -14213.541      19153.683    
      2280   213.89183     -14263.279      0             -14213.43       17098.862    
      2290   217.92171     -14264.095      0             -14213.307      14960.004    
      2300   212.9316      -14262.811      0             -14213.186      12587.756    
      2310   215.42071     -14263.271      0             -14213.066      10359.674    
      2320   219.70844     -14264.153      0             -14212.949      8274.2875    
      2330   213.75261     -14262.643      0             -14212.827      6123.0828    
      2340   207.0253      -14260.958      0             -14212.71       4067.5596    
      2350   207.20592     -14260.887      0             -14212.596      2293.2932    
      2360   209.71166     -14261.36       0             -14212.485      794.45376    
      2370   202.65775     -14259.597      0             -14212.366     -426.03514    
      2380   201.33665     -14259.183      0             -14212.261     -1720.1752    
      2390   192.24434     -14256.949      0             -14212.146     -2602.23      
      2400   196.91252     -14257.937      0             -14212.045     -3086.7342    
      2410   189.79365     -14256.163      0             -14211.93      -3240.2675    
      2420   197.19185     -14257.785      0             -14211.829     -3323.3159    
      2430   200.59349     -14258.464      0             -14211.714     -2953.1735    
      2440   202.62597     -14258.827      0             -14211.604     -2233.802     
      2450   202.76537     -14258.742      0             -14211.487     -1176.0594    
      2460   209.96831     -14260.309      0             -14211.375     -101.9838     
      2470   210.16686     -14260.236      0             -14211.256      1243.847     
      2480   208.46294     -14259.721      0             -14211.138      3027.8403    
      2490   214.85839     -14261.095      0             -14211.021      4964.3914    
      2500   220.21858     -14262.224      0             -14210.901      6924.1702    
      2510   219.64588     -14261.967      0             -14210.778      9035.5941    
      2520   221.17748     -14262.201      0             -14210.654      11277.079    
      2530   229.56496     -14264.036      0             -14210.534      13575.002    
      2540   227.40802     -14263.406      0             -14210.407      15803.122    
      2550   220.22582     -14261.609      0             -14210.284      17860.061    
      2560   214.95545     -14260.261      0             -14210.164      19974.593    
      2570   218.53723     -14260.985      0             -14210.053      21872.639    
      2580   206.90104     -14258.149      0             -14209.929      23549.967    
      2590   206.02355     -14257.839      0             -14209.824      24940.349    
      2600   200.04928     -14256.331      0             -14209.708      26189.459    
      2610   198.79981     -14255.934      0             -14209.602      27125.367    
      2620   197.6382      -14255.55       0             -14209.489      27860.332    
      2630   206.22285     -14257.449      0             -14209.388      28111.481    
      2640   190.22356     -14253.595      0             -14209.263      28168.375    
      2650   203.16584     -14256.515      0             -14209.166      27704.967    
      2660   202.28841     -14256.19       0             -14209.046      27095.943    
      2670   203.55899     -14256.376      0             -14208.936      26103.143    
      2680   203.66654     -14256.283      0             -14208.817      24890.932    
      2690   213.79703     -14258.532      0             -14208.705      23346.397    
      2700   215.97502     -14258.914      0             -14208.579      21649.566    
      2710   223.89535     -14260.641      0             -14208.461      19636.28     
      2720   219.3262      -14259.448      0             -14208.333      17544.45     
      2730   221.07775     -14259.734      0             -14208.211      15379.478    
      2740   225.8382      -14260.719      0             -14208.086      13209.942    
      2750   232.53509     -14262.159      0             -14207.965      10926.19     
      2760   219.6219      -14259.015      0             -14207.831      8844.3638    
      2770   225.12065     -14260.181      0             -14207.715      6763.1602    
      2780   226.52231     -14260.382      0             -14207.59       4799.8166    
      2790   221.02603     -14258.98       0             -14207.469      2960.8888    
      2800   211.7228      -14256.688      0             -14207.345      1461.8881    
      2810   217.93262     -14258.026      0             -14207.235      65.631824    
      2820   211.56527     -14256.419      0             -14207.113     -1149.9821    
      2830   208.94212     -14255.696      0             -14207.001     -2170.2016    
      2840   204.90789     -14254.64       0             -14206.885     -2668.9619    
      2850   207.74753     -14255.192      0             -14206.775     -2979.0748    
      2860   204.50749     -14254.32       0             -14206.658     -3048.4054    
      2870   208.28197     -14255.089      0             -14206.547     -2795.4469    
      2880   207.27192     -14254.734      0             -14206.428     -2053.8247    
      2890   217.97552     -14257.116      0             -14206.315     -1171.7229    
      2900   221.41733     -14257.794      0             -14206.192     -119.55036    
      2910   219.96895     -14257.334      0             -14206.069      1121.7048    
      2920   223.02101     -14257.922      0             -14205.946      2732.3417    
      2930   230.8496      -14259.625      0             -14205.824      4539.4135    
      2940   235.75862     -14260.64       0             -14205.695      6371.9368    
      2950   233.82155     -14260.061      0             -14205.567      8354.8162    
      2960   229.07639     -14258.824      0             -14205.437      10585.174    
      2970   240.17972     -14261.294      0             -14205.319      12724.3      
      2980   229.87794     -14258.758      0             -14205.184      14873.358    
      2990   228.77686     -14258.383      0             -14205.065      16897.844    
      3000   228.51394     -14258.199      0             -14204.942      18959.578    
      3010   224.28139     -14257.09       0             -14204.82       20911.303    
      3020   224.13788     -14256.939      0             -14204.702      22609.792    
      3030   217.32517     -14255.23       0             -14204.581      24208.818    
      3040   215.99114     -14254.806      0             -14204.468      25541.927    
      3050   212.44891     -14253.862      0             -14204.35       26637.575    
      3060   214.42799     -14254.212      0             -14204.238      27412.83     
      3070   211.95869     -14253.519      0             -14204.12       27779.389    
      3080   213.53592     -14253.773      0             -14204.007      27797.195    
      3090   208.87747     -14252.57       0             -14203.89       27523.361    
      3100   207.48104     -14252.131      0             -14203.776      26852.331    
      3110   212.65203     -14253.224      0             -14203.664      25963.216    
      3120   210.9525      -14252.706      0             -14203.542      24924.572    
      3130   221.42696     -14255.035      0             -14203.43       23517.306    
      3140   218.37801     -14254.195      0             -14203.3        21973.265    
      3150   227.33235     -14256.166      0             -14203.185      20126.196    
      3160   227.5538      -14256.087      0             -14203.054      18318.083    
      3170   235.70958     -14257.865      0             -14202.932      16224.609    
      3180   233.7113      -14257.267      0             -14202.799      14096.451    
      3190   234.16281     -14257.246      0             -14202.673      12096.268    
      3200   237.2766      -14257.844      0             -14202.545      10051.073    
      3210   237.12175     -14257.68       0             -14202.417      7958.5795    
      3220   232.71714     -14256.526      0             -14202.289      6015.9906    
      3230   231.04449     -14256.012      0             -14202.165      4155.2646    
      3240   226.33468     -14254.789      0             -14202.04       2682.9533    
      3250   230.44438     -14255.629      0             -14201.923      1328.4208    
      3260   225.50882     -14254.352      0             -14201.796      66.551542    
      3270   225.11237     -14254.141      0             -14201.677     -892.18765    
      3280   225.24868     -14254.054      0             -14201.558     -1476.4815    
      3290   218.94866     -14252.463      0             -14201.436     -1984.0595    
      3300   219.92267     -14252.573      0             -14201.318     -2266.002     
      3310   226.99568     -14254.107      0             -14201.205     -2171.7694    
      3320   215.65601     -14251.335      0             -14201.075     -1576.8553    
      3330   229.42218     -14254.433      0             -14200.965     -981.40474    
      3340   236.05825     -14255.85       0             -14200.835     -97.776622    
      3350   239.44082     -14256.515      0             -14200.712      884.9401     
      3360   230.85368     -14254.381      0             -14200.58       2301.8565    
      3370   233.0414      -14254.772      0             -14200.46       3793.1573    
      3380   237.79474     -14255.752      0             -14200.332      5414.6565    
      3390   246.97181     -14257.766      0             -14200.208      7294.4229    
      3400   248.34397     -14257.952      0             -14200.074      9373.1767    
      3410   246.69446     -14257.438      0             -14199.944      11324.34     
      3420   245.8103      -14257.103      0             -14199.815      13285.989    
      3430   243.23687     -14256.379      0             -14199.691      15286.801    
      3440   235.24688     -14254.385      0             -14199.559      17357.919    
      3450   243.89411     -14256.288      0             -14199.447      19138.699    
      3460   229.15969     -14252.718      0             -14199.311      20934.947    
      3470   238.73121     -14254.841      0             -14199.203      22464.838    
      3480   227.27676     -14252.041      0             -14199.073      23955.714    
      3490   222.86957     -14250.9        0             -14198.959      25115.949    
      3500   228.53001     -14252.104      0             -14198.843      26098.906    
      3510   224.20812     -14250.981      0             -14198.728      26616.522    
      3520   208.53006     -14247.202      0             -14198.603      26941.938    
      3530   222.35517     -14250.326      0             -14198.505      26991.23     
      3540   219.86716     -14249.618      0             -14198.376      26803.696    
      3550   227.24426     -14251.227      0             -14198.267      26206.238    
      3560   223.89782     -14250.318      0             -14198.138      25494.678    
      3570   233.45048     -14252.432      0             -14198.025      24262.046    
      3580   230.54462     -14251.622      0             -14197.892      23034.435    
      3590   238.13794     -14253.276      0             -14197.776      21474.955    
      3600   234.30684     -14252.248      0             -14197.642      19783.992    
      3610   243.6447      -14254.305      0             -14197.522      17968.746    
      3620   245.31534     -14254.56       0             -14197.387      16022.457    
      3630   247.99464     -14255.058      0             -14197.261      13977.984    
      3640   247.63823     -14254.84       0             -14197.127      12135.395    
      3650   251.97008     -14255.725      0             -14197.002      10002.765    
      3660   241.74636     -14253.205      0             -14196.864      7996.1502    
      3670   248.06086     -14254.559      0             -14196.747      6170.4711    
      3680   242.54014     -14253.139      0             -14196.613      4533.6254    
      3690   241.10703     -14252.683      0             -14196.492      2892.4116    
      3700   239.19469     -14252.113      0             -14196.368      1548.6262    
      3710   236.74029     -14251.417      0             -14196.243      533.71039    
      3720   241.86716     -14252.493      0             -14196.124     -303.70799    
      3730   237.28808     -14251.298      0             -14195.997     -1001.8184    
      3740   237.18185     -14251.155      0             -14195.878     -1603.7753    
      3750   234.57391     -14250.423      0             -14195.755     -1783.8509    
      3760   238.26171     -14251.164      0             -14195.636     -1631.3944    
      3770   237.8053      -14250.934      0             -14195.512     -1269.9704    
      3780   238.74214     -14251.03       0             -14195.389     -752.24195    
      3790   243.1394      -14251.931      0             -14195.266      151.313      
      3800   248.52896     -14253.061      0             -14195.14       1455.8777    
      3810   252.56971     -14253.877      0             -14195.014      2747.6244    
      3820   248.46686     -14252.789      0             -14194.883      4018.1187    
      3830   251.84225     -14253.452      0             -14194.758      5585.0436    
      3840   257.82257     -14254.716      0             -14194.629      7501.2669    
      3850   258.92769     -14254.847      0             -14194.502      9329.1365    
      3860   247.67014     -14252.089      0             -14194.368      11166.001    
      3870   256.33612     -14253.991      0             -14194.25       13109.571    
      3880   253.86921     -14253.285      0             -14194.119      15245.881    
      3890   251.05501     -14252.505      0             -14193.995      17239.42     
      3900   250.39775     -14252.23       0             -14193.873      18985.285    
      3910   241.51654     -14250.034      0             -14193.747      20726.16     
      3920   245.01772     -14250.735      0             -14193.632      22261.934    
      3930   239.76115     -14249.388      0             -14193.51       23514.24     
      3940   232.81785     -14247.652      0             -14193.392      24574.918    
      3950   233.43159     -14247.678      0             -14193.275      25614.924    
      3960   239.41441     -14248.961      0             -14193.164      26279.613    
      3970   224.83622     -14245.437      0             -14193.037      26768.418    
      3980   236.02663     -14247.937      0             -14192.93       26819.863    
      3990   242.76309     -14249.386      0             -14192.808      26609.425    
      4000   235.39987     -14247.546      0             -14192.684      26179.833    
      4010   239.35948     -14248.35       0             -14192.566      25328.212    
      4020   244.56351     -14249.444      0             -14192.447      24129.238    
      4030   234.26194     -14246.91       0             -14192.314      23014.632    
      4040   253.74645     -14251.345      0             -14192.207      21421.219    
      4050   244.68538     -14249.089      0             -14192.064      19882.704    
      4060   259.23586     -14252.368      0             -14191.952      18050.123    
      4070   249.03588     -14249.848      0             -14191.809      16276.057    
      4080   260.93527     -14252.507      0             -14191.695      14288.962    
      4090   254.76175     -14250.928      0             -14191.555      12409.641    
      4100   258.58538     -14251.7        0             -14191.435      10265.994    
      4110   254.60428     -14250.637      0             -14191.3        8508.8467    
      4120   260.47409     -14251.887      0             -14191.182      6743.0244    
      4130   250.74211     -14249.485      0             -14191.048      4988.5862    
      4140   250.61892     -14249.335      0             -14190.927      3426.1228    
      4150   261.98252     -14251.863      0             -14190.807      2177.3444    
      4160   252.06704     -14249.42       0             -14190.674      1068.3038    
      4170   248.07152     -14248.368      0             -14190.553     -9.5829564    
      4180   249.90045     -14248.676      0             -14190.435     -824.31768    
      4190   243.55297     -14247.073      0             -14190.311     -1290.1889    
      4200   245.4168      -14247.388      0             -14190.193     -1323.6298    
      4210   256.26771     -14249.8        0             -14190.076     -1298.0149    
      4220   250.70715     -14248.374      0             -14189.945     -1148.0493    
      4230   253.31493     -14248.861      0             -14189.825     -473.12465    
      4240   260.14266     -14250.331      0             -14189.703      528.31263    
      4250   260.71587     -14250.337      0             -14189.575      1405.3992    
      4260   259.36069     -14249.894      0             -14189.448      2491.303     
      4270   265.12574     -14251.116      0             -14189.327      3854.1618    
      4280   261.32884     -14250.101      0             -14189.197      5484.8918    
      4290   262.2445      -14250.192      0             -14189.074      7181.649     
      4300   262.52716     -14250.131      0             -14188.947      9047.6458    
      4310   271.15428     -14252.021      0             -14188.826      10969.314    
      4320   266.23921     -14250.742      0             -14188.694      13064.181    
      4330   270.46341     -14251.609      0             -14188.576      14864.512    
      4340   260.1704      -14249.077      0             -14188.443      16711.667    
      4350   264.72418     -14250.027      0             -14188.331      18472.013    
      4360   249.93758     -14246.452      0             -14188.203      20190.922    
      4370   250.1377      -14246.388      0             -14188.092      21644.521    
      4380   253.32442     -14247.011      0             -14187.972      23154.145    
      4390   259.45348     -14248.327      0             -14187.86       24266.225    
      4400   242.71176     -14244.299      0             -14187.733      25199.866    
      4410   241.49931     -14243.908      0             -14187.625      25866.806    
      4420   244.61594     -14244.519      0             -14187.51       26269.678    
      4430   250.10513     -14245.686      0             -14187.397      26373.844    
      4440   244.31906     -14244.216      0             -14187.276      26286.922    
      4450   245.4203      -14244.357      0             -14187.161      25772.74     
      4460   253.00072     -14246.01       0             -14187.046      25053.946    
      4470   250.64358     -14245.334      0             -14186.92       24147.864    
      4480   257.11857     -14246.729      0             -14186.806      22927.117    
      4490   254.36367     -14245.96       0             -14186.679      21565.459    
      4500   260.32477     -14247.229      0             -14186.559      20016.706    
      4510   265.09888     -14248.218      0             -14186.435      18390.147    
      4520   263.81977     -14247.793      0             -14186.308      16611.615    
      4530   266.65065     -14248.329      0             -14186.185      14668.612    
      4540   266.50297     -14248.169      0             -14186.059      12815.262    
      4550   267.08318     -14248.179      0             -14185.933      10978.805    
      4560   267.85307     -14248.236      0             -14185.811      9124.3566    
      4570   264.90452     -14247.42       0             -14185.683      7347.6812    
      4580   273.00801     -14249.191      0             -14185.565      5620.7494    
      4590   264.55088     -14247.092      0             -14185.437      4178.3149    
      4600   255.59783     -14244.883      0             -14185.314      2862.2475    
      4610   267.59558     -14247.566      0             -14185.201      1643.9906    
      4620   269.7922      -14247.954      0             -14185.077      633.84182    
      4630   261.73021     -14245.951      0             -14184.953     -155.9087     
      4640   257.22447     -14244.782      0             -14184.834     -627.31851    
      4650   266.52638     -14246.835      0             -14184.719     -957.14775    
      4660   270.03802     -14247.531      0             -14184.597     -1055.1892    
      4670   261.24633     -14245.359      0             -14184.474     -802.63944    
      4680   263.39358     -14245.743      0             -14184.358     -214.80824    
      4690   272.23872     -14247.684      0             -14184.237      466.65088    
      4700   274.66447     -14248.13       0             -14184.118      1163.0719    
      4710   264.06066     -14245.529      0             -14183.988      2317.8707    
      4720   274.8334      -14247.929      0             -14183.878      3691.3007    
      4730   274.67211     -14247.766      0             -14183.752      5186.7804    
      4740   274.13916     -14247.52       0             -14183.63       6722.8496    
      4750   281.84815     -14249.2        0             -14183.514      8407.5931    
      4760   272.39317     -14246.868      0             -14183.385      10286.173    
      4770   273.11784     -14246.923      0             -14183.271      12045.294    
      4780   272.4321      -14246.644      0             -14183.152      13898.248    
      4790   271.61712     -14246.338      0             -14183.036      15750.251    
      4800   262.76984     -14244.156      0             -14182.916      17597.138    
      4810   269.90748     -14245.711      0             -14182.807      19398.568    
      4820   268.72249     -14245.315      0             -14182.688      21099.784    
      4830   265.59515     -14244.473      0             -14182.574      22491.199    
      4840   262.13196     -14243.551      0             -14182.46       23759.136    
      4850   259.50354     -14242.828      0             -14182.349      24786.78     
      4860   254.72767     -14241.599      0             -14182.233      25556.24     
      4870   263.86553     -14243.624      0             -14182.128      26065.105    
      4880   261.80871     -14243.026      0             -14182.01       26366.844    
      4890   259.90854     -14242.471      0             -14181.898      26333.649    
      4900   256.67629     -14241.603      0             -14181.784      25995.829    
      4910   261.05276     -14242.513      0             -14181.673      25372.248    
      4920   262.17095     -14242.658      0             -14181.558      24584.331    
      4930   260.27579     -14242.102      0             -14181.443      23429.282    
      4940   255.72477     -14240.924      0             -14181.326      22218.263    
      4950   273.88154     -14245.045      0             -14181.215      20948.733    
      4960   285.5665      -14247.647      0             -14181.094      19379.822    
      4970   277.01245     -14245.525      0             -14180.965      17549.751    
      4980   277.2996      -14245.475      0             -14180.848      15589.005    
      4990   279.61375     -14245.893      0             -14180.727      13727.288    
      5000   280.2585      -14245.925      0             -14180.61       11866.325    
      5010   274.78735     -14244.527      0             -14180.486      9902.7416    
      5020   278.36482     -14245.246      0             -14180.372      8015.4594    
      5030   281.85275     -14245.94       0             -14180.253      6424.1306    
      5040   279.8637      -14245.358      0             -14180.134      4846.3234    
      5050   275.1537      -14244.142      0             -14180.016      3260.2003    
      5060   276.26469     -14244.289      0             -14179.904      1834.0909    
      5070   274.4432      -14243.745      0             -14179.785      792.88055    
      5080   278.99917     -14244.697      0             -14179.675      36.723502    
      5090   276.4977      -14243.996      0             -14179.557     -634.28295    
      5100   272.60827     -14242.976      0             -14179.443     -1155.8862    
      5110   272.99725     -14242.954      0             -14179.33      -1168.1675    
      5120   279.76269     -14244.421      0             -14179.221     -942.15729    
      5130   276.23943     -14243.48       0             -14179.101     -670.99711    
      5140   283.07783     -14244.967      0             -14178.994     -246.28147    
      5150   273.80326     -14242.683      0             -14178.871      644.60148    
      5160   279.17434     -14243.832      0             -14178.769      1588.3794    
      5170   274.64279     -14242.652      0             -14178.645      2980.886     
      5180   287.85092     -14245.633      0             -14178.548      4258.1141    
      5190   272.58055     -14241.943      0             -14178.417      5929.5404    
      5200   289.5164      -14245.794      0             -14178.32       7715.6275    
      5210   289.06115     -14245.563      0             -14178.196      9723.3501    
      5220   290.19871     -14245.719      0             -14178.087      11452.99     
      5230   285.8331      -14244.582      0             -14177.967      13402.492    
      5240   289.79624     -14245.401      0             -14177.863      15361.894    
      5250   279.08338     -14242.784      0             -14177.742      17284.368    
      5260   283.58377     -14243.735      0             -14177.644      18875.864    
      5270   272.12935     -14240.947      0             -14177.526      20654.443    
      5280   276.19085     -14241.797      0             -14177.429      22191.356    
      5290   267.93591     -14239.759      0             -14177.315      23605.565    
      5300   273.84017     -14241.039      0             -14177.219      24672.129    
      5310   267.25217     -14239.39       0             -14177.106      25666.532    
      5320   272.66459     -14240.555      0             -14177.009      26364.858    
      5330   269.24852     -14239.645      0             -14176.895      26965.634    
      5340   271.35841     -14240.039      0             -14176.798      26937.424    
      5350   260.67214     -14237.434      0             -14176.683      26731.319    
      5360   275.01833     -14240.681      0             -14176.587      26340.853    
      5370   283.69337     -14242.593      0             -14176.476      25617.157    
      5380   274.5908      -14240.356      0             -14176.361      24477.206    
      5390   276.16562     -14240.618      0             -14176.256      23195.048    
      5400   281.11355     -14241.663      0             -14176.148      21737.357    
      5410   282.05105     -14241.768      0             -14176.034      20008.645    
      5420   290.92349     -14243.727      0             -14175.926      18154.456    
      5430   290.82573     -14243.591      0             -14175.813      16262.007    
      5440   283.10063     -14241.674      0             -14175.695      14320.208    
      5450   296.08634     -14244.6        0             -14175.595      12184.51     
      5460   289.11324     -14242.851      0             -14175.471      10166.279    
      5470   297.69594     -14244.751      0             -14175.371      8173.0417    
      5480   293.8817      -14243.741      0             -14175.25       6518.6267    
      5490   298.91555     -14244.815      0             -14175.151      4528.3619    
      5500   281.38062     -14240.604      0             -14175.026      2921.588     
      5510   295.50135     -14243.81       0             -14174.941      1395.9437    
      5520   275.6436      -14239.053      0             -14174.813      503.56034    
      5530   292.83284     -14242.977      0             -14174.731     -613.40296    
      5540   283.01148     -14240.568      0             -14174.61      -1337.2872    
      5550   285.11827     -14240.965      0             -14174.516     -1758.0027    
      5560   280.63089     -14239.809      0             -14174.407     -1690.6888    
      5570   284.77544     -14240.68       0             -14174.311     -1729.4471    
      5580   280.64544     -14239.606      0             -14174.2       -1405.3111    
      5590   293.77053     -14242.575      0             -14174.11      -833.68357    
      5600   281.89067     -14239.689      0             -14173.993      233.65252    
      5610   285.25148     -14240.379      0             -14173.9        1200.0823    
      5620   286.55893     -14240.576      0             -14173.792      2403.2856    
      5630   292.55901     -14241.879      0             -14173.696      3909.3488    
      5640   290.35734     -14241.253      0             -14173.583      5813.6313    
      5650   303.04943     -14244.119      0             -14173.492      7603.5581    
      5660   291.54865     -14241.318      0             -14173.371      9647.7252    
      5670   307.57434     -14244.968      0             -14173.286      11549.433    
      5680   295.80527     -14242.106      0             -14173.166      13729.827    
      5690   298.63877     -14242.676      0             -14173.077      15560.38     
      5700   285.57272     -14239.518      0             -14172.964      17573.091    
      5710   298.59408     -14242.47       0             -14172.881      19482.386    
      5720   290.59646     -14240.494      0             -14172.769      21434.084    
      5730   292.74507     -14240.907      0             -14172.681      22903.612    
      5740   283.84496     -14238.727      0             -14172.575      24346.418    
      5750   286.9627      -14239.369      0             -14172.491      25437.367    
      5760   277.89335     -14237.149      0             -14172.384      26474.239    
      5770   287.48428     -14239.304      0             -14172.304      27089.096    
      5780   272.63503     -14235.737      0             -14172.197      27462.466    
      5790   275.9258      -14236.417      0             -14172.111      27469.287    
      5800   281.77815     -14237.687      0             -14172.017      27257.584    
      5810   279.40313     -14237.041      0             -14171.925      26602.077    
      5820   272.17851     -14235.254      0             -14171.821      25804.368    
      5830   287.07033     -14238.641      0             -14171.737      24774.496    
      5840   290.90332     -14239.429      0             -14171.632      23555.553    
      5850   295.11551     -14240.318      0             -14171.54       21903.842    
      5860   285.47485     -14237.959      0             -14171.427      20282.341    
      5870   310.38828     -14243.683      0             -14171.346      18402.616    
      5880   305.77519     -14242.492      0             -14171.229      16484.235    
      5890   304.23239     -14242.038      0             -14171.135      14146.438    
      5900   297.69161     -14240.407      0             -14171.028      12035.466    
      5910   311.1081      -14243.449      0             -14170.943      9961.8223    
      5920   295.79955     -14239.769      0             -14170.831      7994.9724    
      5930   303.17691     -14241.401      0             -14170.743      5883.2995    
      5940   306.22671     -14242.015      0             -14170.647      4062.4857    
      5950   295.64647     -14239.451      0             -14170.549      2423.166     
      5960   292.0436      -14238.52       0             -14170.458      1018.7813    
      5970   293.19968     -14238.7        0             -14170.368     -219.97382    
      5980   297.96972     -14239.72       0             -14170.276     -1261.0563    
      5990   298.59726     -14239.776      0             -14170.186     -1868.7778    
      6000   289.16913     -14237.485      0             -14170.092     -2161.1363    
      6010   287.82452     -14237.085      0             -14170.006     -2449.6628    
      6020   288.45697     -14237.143      0             -14169.916     -2412.3376    
      6030   293.81254     -14238.307      0             -14169.832     -2000.1723    
      6040   286.11016     -14236.419      0             -14169.739     -1267.6738    
      6050   283.6388      -14235.755      0             -14169.651     -352.93466    
      6060   298.67859     -14239.178      0             -14169.57       761.43555    
      6070   300.59142     -14239.525      0             -14169.47       2336.5686    
      6080   312.67742     -14242.259      0             -14169.388      4052.6276    
      6090   299.6008      -14239.111      0             -14169.288      5906.716     
      6100   301.79169     -14239.536      0             -14169.202      7726.0388    
      6110   309.54173     -14241.256      0             -14169.116      9706.5078    
      6120   300.8914      -14239.143      0             -14169.018      11969.309    
      6130   317.43966     -14242.924      0             -14168.942      14032.927    
      6140   305.44857     -14240.029      0             -14168.843      16111.41     
      6150   299.68862     -14238.606      0             -14168.762      18068.188    
      6160   303.06669     -14239.308      0             -14168.676      20109.258    
      6170   308.80387     -14240.564      0             -14168.596      21912.967    
      6180   297.20164     -14237.768      0             -14168.504      23544.617    
      6190   297.62528     -14237.795      0             -14168.432      24929.975    
      6200   289.00166     -14235.695      0             -14168.341      26105.836    
      6210   294.3938      -14236.881      0             -14168.271      26928.132    
      6220   289.11621     -14235.564      0             -14168.184      27583.475    
      6230   289.42181     -14235.563      0             -14168.111      27748.545    
      6240   281.48615     -14233.626      0             -14168.024      27812.618    
      6250   295.72483     -14236.876      0             -14167.955      27453.154    
      6260   288.79247     -14235.172      0             -14167.867      26688.404    
      6270   282.25402     -14233.568      0             -14167.787      25704.367    
      6280   291.6773      -14235.687      0             -14167.71       24624.608    
      6290   301.59617     -14237.92       0             -14167.632      23222.843    
      6300   298.61304     -14237.132      0             -14167.539      21694.284    
      6310   311.1023      -14239.97       0             -14167.466      19786.994    
      6320   305.71138     -14238.62       0             -14167.373      17904.164    
      6330   311.53232     -14239.9        0             -14167.296      15740.012    
      6340   305.31614     -14238.363      0             -14167.208      13500.277    
      6350   304.30992     -14238.05       0             -14167.128      11392.847    
      6360   311.43057     -14239.63       0             -14167.049      9430.2867    
      6370   314.67374     -14240.303      0             -14166.967      7496.9447    
      6380   313.53715     -14239.958      0             -14166.886      5566.0656    
      6390   315.20651     -14240.267      0             -14166.806      3906.6301    
      6400   312.95379     -14239.665      0             -14166.729      2412.6073    
      6410   304.46784     -14237.607      0             -14166.649      810.77993    
      6420   301.06342     -14236.743      0             -14166.578     -517.50937    
      6430   293.70249     -14234.952      0             -14166.503     -1416.5714    
      6440   289.43812     -14233.888      0             -14166.433     -2083.7077    
      6450   291.95333     -14234.403      0             -14166.362     -2479.2648    
      6460   297.16335     -14235.548      0             -14166.293     -2589.5495    
      6470   295.53925     -14235.092      0             -14166.214     -2166.7182    
      6480   305.96303     -14237.457      0             -14166.151     -1572.0595    
      6490   299.80391     -14235.939      0             -14166.068     -846.1952     
      6500   304.15919     -14236.89       0             -14166.004     -20.010312    
      6510   299.22748     -14235.661      0             -14165.924      1355.7092    
      6520   309.08232     -14237.893      0             -14165.859      2901.2476    
      6530   308.59057     -14237.701      0             -14165.782      4527.9775    
      6540   310.88224     -14238.165      0             -14165.712      6182.7506    
      6550   313.394       -14238.677      0             -14165.639      8275.6273    
      6560   320.62391     -14240.293      0             -14165.57       10439.172    
      6570   316.57321     -14239.276      0             -14165.496      12506.685    
      6580   312.51182     -14238.259      0             -14165.426      14484.096    
      6590   315.20456     -14238.822      0             -14165.361      16500.626    
      6600   307.94927     -14237.061      0             -14165.292      18585.146    
      6610   307.30744     -14236.846      0             -14165.226      20514.807    
      6620   311.00831     -14237.647      0             -14165.165      22222.41     
      6630   305.0036      -14236.179      0             -14165.096      23830.289    
      6640   304.48383     -14235.998      0             -14165.036      25177.343    
      6650   301.59848     -14235.261      0             -14164.972      26223.469    
      6660   301.67836     -14235.221      0             -14164.913      26898.806    
      6670   289.79712     -14232.386      0             -14164.847      27461.027    
      6680   286.4537      -14231.55       0             -14164.79       27687.891    
      6690   295.0863      -14233.504      0             -14164.732      27517.362    
      6700   297.60659     -14234.027      0             -14164.668      27142.922    
      6710   299.40517     -14234.386      0             -14164.608      26506.611    
      6720   298.64554     -14234.146      0             -14164.545      25361.485    
      6730   298.65957     -14234.087      0             -14164.482      23979.448    
      6740   300.51101     -14234.455      0             -14164.419      22533.761    
      6750   308.95253     -14236.362      0             -14164.359      20911.114    
      6760   311.84291     -14236.973      0             -14164.296      19138.629    
      6770   310.52019     -14236.599      0             -14164.23       17165.233    
      6780   312.4586      -14236.989      0             -14164.169      15155.043    
      6790   316.48009     -14237.865      0             -14164.107      13105.846    
      6800   314.02769     -14237.23       0             -14164.044      11050.135    
      6810   318.40093     -14238.191      0             -14163.985      8946.3829    
      6820   319.1284      -14238.299      0             -14163.924      7011.6069    
      6830   316.83979     -14237.705      0             -14163.864      5326.6051    
      6840   317.31903     -14237.762      0             -14163.809      3692.5648    
      6850   313.93649     -14236.914      0             -14163.75       1935.6464    
      6860   309.96147     -14235.934      0             -14163.695      507.67753    
      6870   306.44873     -14235.063      0             -14163.643     -412.46568    
      6880   301.40546     -14233.832      0             -14163.588     -1189.8001    
      6890   300.28154     -14233.52       0             -14163.538     -1898.2891    
      6900   299.34828     -14233.25       0             -14163.485     -2092.0829    
      6910   307.76432     -14235.161      0             -14163.435     -1960.3679    
      6920   308.62086     -14235.308      0             -14163.382     -1626.263     
      6930   309.0015      -14235.346      0             -14163.331     -1160.8608    
      6940   307.71188     -14234.99       0             -14163.276     -391.56299    
      6950   314.59332     -14236.55       0             -14163.233      611.40728    
      6960   305.04122     -14234.266      0             -14163.174      2056.654     
      6970   310.22856     -14235.431      0             -14163.13       3367.847     
      6980   310.30235     -14235.395      0             -14163.077      4988.8299    
      6990   320.42842     -14237.71       0             -14163.032      6936.6213    
      7000   324.56324     -14238.621      0             -14162.98       9093.9729    
      7010   327.66665     -14239.301      0             -14162.936      10940.174    
      7020   315.05953     -14236.307      0             -14162.88       12939.224    
      7030   322.84524     -14238.085      0             -14162.844      14972.394    
      7040   320.94463     -14237.593      0             -14162.795      17029.422    
      7050   316.48683     -14236.511      0             -14162.752      18896.967    
      7060   317.46827     -14236.7        0             -14162.712      20781.365    
      7070   315.15313     -14236.119      0             -14162.671      22473.727    
      7080   310.82493     -14235.069      0             -14162.63       23937.182    
      7090   310.86679     -14235.043      0             -14162.593      25179.475    
      7100   307.1473      -14234.135      0             -14162.553      26120.375    
      7110   302.84712     -14233.099      0             -14162.518      26782.564    
      7120   298.30186     -14231.996      0             -14162.475      27383.034    
      7130   308.05234     -14234.241      0             -14162.448      27445.883    
      7140   296.67547     -14231.544      0             -14162.402      27355.062    
      7150   302.22304     -14232.806      0             -14162.371      26834.358    
      7160   302.99749     -14232.949      0             -14162.334      25952.784    
      7170   297.63301     -14231.659      0             -14162.294      24867.731    
      7180   304.74091     -14233.282      0             -14162.26       23486.564    
      7190   306.9351      -14233.753      0             -14162.22       22092.383    
      7200   317.52851     -14236.19       0             -14162.188      20434.699    
      7210   317.17758     -14236.067      0             -14162.147      18547.795    
      7220   318.67772     -14236.381      0             -14162.112      16551.557    
      7230   317.70639     -14236.121      0             -14162.077      14592.928    
      7240   314.13739     -14235.25       0             -14162.038      12595.906    
      7250   320.77039     -14236.768      0             -14162.01       10497.715    
      7260   318.20935     -14236.135      0             -14161.974      8569.3991    
      7270   317.58121     -14235.956      0             -14161.942      6767.4284    
      7280   319.63869     -14236.406      0             -14161.912      5053.6847    
      7290   314.52831     -14235.185      0             -14161.882      3452.9714    
      7300   312.74317     -14234.738      0             -14161.851      1898.0567    
      7310   313.38552     -14234.865      0             -14161.828      712.64982    
      7320   300.72052     -14231.876      0             -14161.791     -20.979372    
      7330   313.74969     -14234.896      0             -14161.775     -949.98894    
      7340   314.1507      -14234.96       0             -14161.745     -1410.4542    
      7350   309.03157     -14233.739      0             -14161.718     -1548.2035    
      7360   305.8733      -14232.979      0             -14161.694     -1531.6976    
      7370   305.36597     -14232.834      0             -14161.667     -1230.8773    
      7380   312.48895     -14234.476      0             -14161.648     -766.79198    
      7390   308.87747     -14233.603      0             -14161.617      176.92126    
      7400   319.83765     -14236.141      0             -14161.601      1411.9573    
      7410   320.18489     -14236.194      0             -14161.573      2666.9788    
      7420   320.85943     -14236.336      0             -14161.558      3843.9412    
      7430   304.65378     -14232.525      0             -14161.523      5614.7528    
      7440   324.60846     -14237.171      0             -14161.519      7407.8026    
      7450   317.8094      -14235.557      0             -14161.49       9401.7305    
      7460   322.38866     -14236.609      0             -14161.474      11413.114    
      7470   330.79523     -14238.553      0             -14161.459      13519.377    
      7480   324.31039     -14237.021      0             -14161.439      15501.419    
      7490   327.15322     -14237.673      0             -14161.428      17350.698    
      7500   320.63538     -14236.139      0             -14161.413      19105.728    
      7510   309.22961     -14233.466      0             -14161.398      20751.739    
      7520   311.36956     -14233.954      0             -14161.388      22333.413    
      7530   315.38947     -14234.883      0             -14161.38       23708.193    
      7540   309.44017     -14233.482      0             -14161.365      24929.936    
      7550   310.10809     -14233.634      0             -14161.361      25762.515    
      7560   301.36854     -14231.579      0             -14161.343      26392.806    
      7570   311.92636     -14234.04       0             -14161.343      26764.338    
      7580   308.99087     -14233.342      0             -14161.329      26874.386    
      7590   304.59107     -14232.31       0             -14161.323      26590.655    
      7600   298.32442     -14230.833      0             -14161.307      26157.844    
      7610   317.72013     -14235.36       0             -14161.314      25301.786    
      7620   309.88009     -14233.511      0             -14161.292      24358.518    
      7630   311.88012     -14233.98       0             -14161.294      22942.692    
      7640   308.91282     -14233.273      0             -14161.279      21572.004    
      7650   320.98162     -14236.09       0             -14161.283      19900.967    
      7660   312.19347     -14234.022      0             -14161.263      18156.268    
      7670   328.158       -14237.756      0             -14161.277      16120.309    
      7680   312.04731     -14233.978      0             -14161.254      14225.327    
      7690   326.19332     -14237.285      0             -14161.264      12134.037    
      7700   328.62941     -14237.849      0             -14161.26       10199.338    
      7710   315.32798     -14234.745      0             -14161.256      8346.8728    
      7720   317.19328     -14235.181      0             -14161.257      6573.9639    
      7730   322.68384     -14236.466      0             -14161.262      4769.1976    
      7740   316.45325     -14235.012      0             -14161.261      3268.8383    
      7750   316.39519     -14235.007      0             -14161.269      1925.6278    
      7760   310.18527     -14233.556      0             -14161.266      824.69178    
      7770   315.03383     -14234.7        0             -14161.28      -169.68563    
      7780   303.26952     -14231.956      0             -14161.277     -912.63121    
      7790   305.25802     -14232.429      0             -14161.287     -1316.8503    
      7800   308.07542     -14233.091      0             -14161.292     -1178.5171    
      7810   309.1948      -14233.359      0             -14161.299     -1112.0363    
      7820   307.0812      -14232.871      0             -14161.304     -789.25519    
      7830   309.82324     -14233.518      0             -14161.312     -7.5027877    
      7840   314.56217     -14234.633      0             -14161.322      903.20068    
      7850   314.30209     -14234.578      0             -14161.328      1977.3505    
      7860   316.09545     -14235.007      0             -14161.339      3168.7859    
      7870   315.65106     -14234.914      0             -14161.35       4648.4821    
      7880   316.87909     -14235.209      0             -14161.358      6468.0966    
      7890   325.60876     -14237.261      0             -14161.376      8224.8287    
      7900   325.32381     -14237.204      0             -14161.386      10060.733    
      7910   324.78732     -14237.096      0             -14161.402      12078.354    
      7920   318.91916     -14235.742      0             -14161.416      14086.265    
      7930   323.80159     -14236.9        0             -14161.436      15933.348    
      7940   322.09823     -14236.519      0             -14161.452      17756.596    
      7950   320.21653     -14236.102      0             -14161.474      19450.342    
      7960   321.05626     -14236.315      0             -14161.491      21172.167    
      7970   322.43685     -14236.663      0             -14161.517      22621.788    
      7980   309.10673     -14233.574      0             -14161.535      23731.378    
      7990   304.1071      -14232.431      0             -14161.557      24688.569    
      8000   305.31456     -14232.738      0             -14161.582      25370.074    
      8010   296.05621     -14230.594      0             -14161.596      25886.298    
      8020   303.24667     -14232.299      0             -14161.626      26146.311    
      8030   303.62593     -14232.402      0             -14161.64       26264.648    
      8040   316.6173      -14235.461      0             -14161.671      25936.642    
      8050   309.89813     -14233.912      0             -14161.689      25419.063    
      8060   303.30361     -14232.401      0             -14161.714      24372.12     
      8070   298.2         -14231.23       0             -14161.732      23164.72     
      8080   306.78567     -14233.259      0             -14161.761      21884.557    
      8090   310.85157     -14234.227      0             -14161.781      20454.74     
      8100   314.52184     -14235.109      0             -14161.808      18724.633    
      8110   311.83125     -14234.503      0             -14161.829      17167.702    
      8120   319.96975     -14236.431      0             -14161.86       15356.44     
      8130   318.15239     -14236.033      0             -14161.886      13374.096    
      8140   312.17676     -14234.666      0             -14161.912      11465.319    
      8150   317.29357     -14235.885      0             -14161.938      9743.1437    
      8160   328.76444     -14238.599      0             -14161.978      8044.6558    
      8170   312.11368     -14234.735      0             -14161.995      6416.7476    
      8180   317.54659     -14236.042      0             -14162.035      4680.9611    
      8190   319.1394      -14236.443      0             -14162.065      3506.436     
      8200   318.62825     -14236.359      0             -14162.1        2289.6798    
      8210   309.9988      -14234.379      0             -14162.132      1054.3755    
      8220   305.98783     -14233.477      0             -14162.165      276.62344    
      8230   309.92964     -14234.432      0             -14162.201     -29.700934    
      8240   311.85511     -14234.915      0             -14162.236     -287.35331    
      8250   305.93511     -14233.573      0             -14162.273     -563.72497    
      8260   301.28918     -14232.516      0             -14162.299     -370.24882    
      8270   317.08703     -14236.247      0             -14162.348      181.40937    
      8280   306.16265     -14233.726      0             -14162.373      1038.134     
      8290   315.37423     -14235.92       0             -14162.42       1751.5873    
      8300   309.80341     -14234.65       0             -14162.449      2888.7711    
      8310   319.02643     -14236.847      0             -14162.496      4159.7298    
      8320   317.45398     -14236.514      0             -14162.53       5643.0566    
      8330   318.92421     -14236.902      0             -14162.575      6996.7912    
      8340   319.47612     -14237.068      0             -14162.612      8651.4649    
      8350   324.74778     -14238.348      0             -14162.664      10454.148    
      8360   311.37201     -14235.265      0             -14162.697      12412.465    
      8370   320.19578     -14237.372      0             -14162.748      14081.058    
      8380   325.30831     -14238.61       0             -14162.794      15765.341    
      8390   319.03211     -14237.196      0             -14162.843      17391.093    
      8400   308.57174     -14234.796      0             -14162.881      19117.924    
      8410   318.65721     -14237.206      0             -14162.941      20542.435    
      8420   308.2042      -14234.802      0             -14162.973      21984.259    
      8430   327.38777     -14239.341      0             -14163.042      23139.081    
      8440   308.61297     -14235.001      0             -14163.076      24230.914    
      8450   305.24827     -14234.273      0             -14163.133      24623.103    
      8460   299.62172     -14233.004      0             -14163.176      25010.945    
      8470   301.15596     -14233.418      0             -14163.232      25090.706    
      8480   290.32179     -14230.928      0             -14163.266      24975.5      
      8490   300.58473     -14233.379      0             -14163.326      24531.142    
      8500   294.61485     -14232.023      0             -14163.361      24127.492    
      8510   305.8979      -14234.711      0             -14163.42       23315.049    
      8520   293.1431      -14231.773      0             -14163.455      22419.234    
      8530   299.0636      -14233.207      0             -14163.508      21128.108    
      8540   302.75045     -14234.105      0             -14163.547      19882.998    
      8550   317.40042     -14237.582      0             -14163.61       18344.359    
      8560   297.63685     -14233.002      0             -14163.636      16965.581    
      8570   316.19189     -14237.396      0             -14163.706      15098.231    
      8580   306.26844     -14235.115      0             -14163.737      13505.29     
      8590   319.18829     -14238.19       0             -14163.801      11737.298    
      8600   311.52047     -14236.443      0             -14163.842      10116.343    
      8610   315.0209      -14237.318      0             -14163.9        8312.7449    
[...]
     49630   303.44799      288.16023      306.02449      28.754687     -31.940221     -17.864256    
     49640   301.09247      306.9093       311.23777      28.662925     -31.845651     -4.3284748    
     49650   303.76531      298.28931      308.48832      28.653837     -31.941331     -10.199015    
     49660   296.63983      299.3451       261.17158      28.59639      -31.86801       38.173517    
     49670   305.14107      330.39018      253.11705      28.626502     -31.86131       77.273131    
     49680   301.2247       326.42039      297.26617      28.774282     -31.928315      29.154223    
     49690   298.69007      311.29257      321.14785      28.806834     -31.979545     -9.855285     
     49700   297.41207      282.06455      302.85534      28.829291     -31.946045     -20.790795    
     49710   300.53206      339.24452      288.02546      28.782483     -31.946903      51.219064    
     49720   300.51163      333.41067      315.1998       28.765465     -31.996045      18.210867    
     49730   301.8578       295.18302      292.05599      28.695324     -32.039058      3.1270366    
     49740   297.3511       280.12067      313.09564      28.622297     -32.133293     -32.974968    
     49750   301.29021      306.96313      316.04726      28.704051     -32.165273     -9.0841361    
     49760   300.14022      293.07418      304.3866       28.648745     -32.127129     -11.312415    
     49770   298.68319      307.71174      302.0323       28.685791     -32.162206      5.679445     
     49780   297.92064      300.03566      329.97905      28.636515     -32.222412     -29.943382    
     49790   300.79344      318.01891      304.53675      28.594645     -32.228869      13.482153    
     49800   304.14105      304.09837      281.35977      28.561734     -32.220012      22.738601    
     49810   298.82731      307.99119      263.41653      28.686334     -32.183417      44.574662    
     49820   305.44569      303.44012      319.82526      28.699726     -32.191702     -16.385145    
     49830   304.48957      344.06633      299.88196      28.734325     -32.24811       44.184374    
     49840   301.53618      271.68113      287.27301      28.758219     -32.312961     -15.591878    
     49850   301.11673      300.64942      319.29928      28.695591     -32.42279      -18.649859    
     49860   301.64225      324.26434      330.95456      28.688282     -32.495109     -6.6902195    
     49870   303.77005      311.81066      315.61518      28.684688     -32.623528     -3.804515     
     49880   298.99601      344.44505      282.97449      28.700237     -32.635004      61.470559    
     49890   304.51705      339.1256       292.0556       28.688752     -32.546152      47.070001    
     49900   303.93208      302.73841      300.1017       28.735257     -32.547083      2.6367091    
     49910   297.92017      342.27053      277.33114      28.821926     -32.579634      64.939391    
     49920   298.00312      301.86747      303.97611      28.80192      -32.649987     -2.1086464    
     49930   297.86637      287.18057      307.54353      28.84006      -32.554022     -20.362955    
     49940   302.21963      329.78619      338.25373      28.712167     -32.55806      -8.4675382    
     49950   298.45272      305.78823      322.93389      28.814835     -32.553782     -17.14566     
     49960   298.80936      305.30484      307.59623      28.770708     -32.694903     -2.2913939    
     49970   310.67751      307.46887      298.66868      28.954587     -32.637047      8.8001936    
     49980   304.31601      317.62595      314.68838      29.04623      -32.703934      2.9375752    
     49990   301.78271      310.87509      334.89821      29.178591     -32.733738     -24.023114    
     50000   302.03732      286.26092      331.33561      29.147392     -32.733432     -45.074687    
Loop time of 12.2174 on 24 procs for 50000 steps with 1804 atoms

Performance: 176.797 ns/day, 0.136 hours/ns, 4092.515 timesteps/s, 7.383 Matom-step/s
90.7% CPU use with 24 MPI tasks x 1 OpenMP threads

MPI task timing breakdown:
Section |  min time  |  avg time  |  max time  |%varavg| %total
---------------------------------------------------------------
Pair    | 6.731      | 8.1237     | 9.3452     |  17.5 | 66.49
Neigh   | 0.000419   | 0.00046692 | 0.000526   |   0.0 |  0.00
Comm    | 2.365      | 3.6018     | 4.9995     |  26.4 | 29.48
Output  | 0.11821    | 0.12289    | 0.13392    |   1.2 |  1.01
Modify  | 0.037357   | 0.055067   | 0.094504   |  10.0 |  0.45
Other   |            | 0.3135     |            |       |  2.57

Nlocal:        75.1667 ave          84 max          65 min
Histogram: 2 1 3 4 0 2 6 1 1 4
Nghost:        283.417 ave         312 max         263 min
Histogram: 2 4 2 5 3 3 1 2 1 1
Neighs:              0 ave           0 max           0 min
Histogram: 24 0 0 0 0 0 0 0 0 0
FullNghs:         1353 ave        1512 max        1170 min
Histogram: 2 1 3 4 0 2 6 1 1 4

Total # of neighbors = 32472
Ave neighs/atom = 18
Neighbor list builds = 10
Dangerous builds = 0
# --- 3rd stage ---
# thermal conductivity calculation
# reset langevin thermostats to zero energy accumulation
unfix left_thermostat
unfix right_thermostat
fix left_thermostat left langevin ${tlo} ${tlo} ${tdamp} ${seed_2} tally yes
fix left_thermostat left langevin 280 ${tlo} ${tdamp} ${seed_2} tally yes
fix left_thermostat left langevin 280 280 ${tdamp} ${seed_2} tally yes
fix left_thermostat left langevin 280 280 0.5 ${seed_2} tally yes
fix left_thermostat left langevin 280 280 0.5 45623 tally yes
fix right_thermostat right langevin ${thi} ${thi} ${tdamp} ${seed_3} tally yes
fix right_thermostat right langevin 320 ${thi} ${tdamp} ${seed_3} tally yes
fix right_thermostat right langevin 320 320 ${tdamp} ${seed_3} tally yes
fix right_thermostat right langevin 320 320 0.5 ${seed_3} tally yes
fix right_thermostat right langevin 320 320 0.5 78934 tally yes
fix_modify left_thermostat temp Tleft
fix_modify right_thermostat temp Tright
fix ave all ave/time 10 100 1000 v_tdiff ave running
thermo 1000
thermo_style custom step temp c_Tleft c_Tright f_left_thermostat f_right_thermostat v_tdiff f_ave
compute ke all ke/atom
variable temp atom c_ke/(1.5*${kB})
variable temp atom c_ke/(1.5*8.617e-05)












compute layers all chunk/atom bin/1d z lower 1.82 units box
fix temp_profile all ave/chunk 10 100 1000 layers v_temp file profile.langevin
run ${n_steps_stage_3}
run 100000
Per MPI rank memory allocation (min/avg/max) = 4.066 | 4.067 | 4.067 Mbytes
   Step          Temp         c_Tleft        c_Tright    f_left_thermostat f_right_thermostat    v_tdiff         f_ave     
     50000   302.03732      286.26092      331.33561     -0             -0             -45.074687      0            
     51000   300.44497      291.62893      371.2299       2.0293491     -1.5761099     -79.60097      -30.845108    
     52000   304.93226      267.75618      319.05149      2.1172817     -1.7670293     -51.295309     -18.171184    
     53000   305.98939      316.26786      310.26266      2.4282958     -2.4248632      6.0052007     -13.071408    
     54000   308.80777      293.94183      322.06401      3.3973104     -2.1390157     -28.122181     -11.29053     
     55000   288.11673      288.15367      335.32698      4.7180435     -2.1830621     -47.173303     -10.055175    
     56000   294.55455      266.22635      335.27789      5.5991714     -2.7284285     -69.051536     -10.697053    
     57000   296.4284       276.02649      278.72152      6.5469137     -2.8822168     -2.6950337     -10.658084    
     58000   295.96767      265.91899      273.97117      6.7580173     -3.2575482     -8.0521784     -10.28249     
     59000   289.79661      304.19804      299.43011      7.6512307     -3.5645456      4.7679241     -10.82049     
     60000   284.86274      288.18197      282.7398       9.0361746     -4.7633033      5.4421702     -9.918808     
     61000   294.73319      312.40768      274.19444      10.768884     -5.2835278      38.213236     -8.0205695    
     62000   292.90658      295.7951       327.48745      10.313137     -6.4913261     -31.692352     -9.7694168    
     63000   294.66902      263.68304      292.40944      10.313305     -7.4896796     -28.726398     -10.41642     
     64000   299.86493      287.28295      317.11415      10.582838     -8.9607937     -29.831194     -12.060206    
     65000   299.66787      287.81398      284.07876      11.101724     -9.6521078      3.7352257     -11.679413    
     66000   295.64732      295.3105       267.01204      12.186993     -9.3070767      28.298459     -10.891922    
     67000   289.37371      301.13559      261.55231      13.101477     -10.730235      39.583275     -9.6677147    
     68000   296.00636      270.67723      303.36398      13.107274     -11.265702     -32.686743     -9.7738335    
     69000   294.14004      278.22829      337.94906      13.982249     -11.427533     -59.720766     -8.9198584    
     70000   297.69887      296.22042      309.4026       13.807763     -12.624735     -13.182174     -9.1867518    
     71000   297.34615      314.53033      327.97335      14.075335     -14.049213     -13.443023     -9.5000232    
     72000   302.87366      294.61325      325.52883      15.14616      -15.111764     -30.915574     -9.406174     
     73000   290.75604      279.38219      274.03055      15.593548     -14.981831      5.3516371     -9.3504386    
     74000   302.23782      282.43717      293.47955      14.567763     -15.581        -11.042375     -8.9715708    
     75000   300.72104      341.09481      319.76345      15.063836     -16.566508      21.33136      -8.8614018    
     76000   305.2204       274.90279      288.25407      15.918453     -17.197717     -13.351281     -8.7512562    
     77000   296.93216      275.20342      312.58781      16.833325     -17.147866     -37.384389     -9.3023051    
     78000   304.1659       307.12905      319.26555      18.134748     -18.542603     -12.136498     -8.9602688    
     79000   300.68924      297.12145      262.23599      18.298394     -18.551934      34.88546      -8.73611      
     80000   297.46582      274.69769      331.20438      19.023723     -19.115373     -56.506691     -8.0242085    
     81000   290.4332       330.16939      289.20486      19.287372     -19.141673      40.964528     -8.2273112    
     82000   304.0415       291.53415      301.70136      19.143283     -19.036385     -10.16721      -7.8994446    
     83000   300.02856      318.97442      322.01115      18.280161     -18.154427     -3.0367236     -8.4373804    
     84000   289.22787      290.5598       315.79074      19.502502     -19.120902     -25.230947     -8.7636554    
     85000   304.49214      307.1512       345.35545      18.987797     -19.339476     -38.204242     -8.6791409    
     86000   290.79976      310.93501      292.90983      20.892351     -19.135997      18.025183     -8.8313703    
     87000   303.40881      331.19062      285.83164      21.321179     -19.234608      45.358979     -8.827951     
     88000   298.85025      294.4652       303.73964      21.175001     -19.072715     -9.2744383     -8.9606272    
     89000   301.87036      296.36179      311.44715      21.738288     -19.757717     -15.085362     -9.0707656    
     90000   292.23832      315.00484      271.56944      21.882301     -19.816338      43.435405     -8.9375771    
     91000   300.80325      329.74268      296.46585      23.363828     -21.190031      33.276829     -8.6827634    
     92000   298.64177      308.95253      263.07417      24.196984     -21.567655      45.878359     -8.6176552    
     93000   290.08927      278.49507      274.58825      24.761558     -21.521045      3.9068231     -8.7488338    
     94000   289.44725      275.33231      267.33369      25.282974     -21.929243      7.9986235     -8.8804305    
     95000   297.21544      328.62008      316.61669      26.014775     -22.503626      12.003395     -8.7636673    
     96000   298.28013      273.0728       304.97084      25.636057     -23.512075     -31.898035     -8.6027544    
     97000   289.10124      267.77388      273.31032      26.892596     -24.515012     -5.5364408     -8.4932341    
     98000   302.43349      308.96176      243.09084      27.005835     -24.791481      65.870919     -8.1389719    
     99000   298.20828      306.00831      311.20359      28.260891     -25.868787     -5.1952773     -8.1303213    
    100000   296.2704       294.82337      316.08167      28.853252     -27.769922     -21.258299     -7.8070702    
    101000   301.90562      283.60449      291.62493      29.00627      -29.235046     -8.0204386     -7.9569143    
    102000   301.71332      297.317        318.70996      29.590482     -29.93412      -21.392953     -7.9155982    
    103000   301.85575      316.92775      310.89847      30.73531      -31.622172      6.0292872     -7.9601278    
    104000   299.61194      306.95423      298.86144      31.017899     -32.060819      8.0927911     -8.1759124    
    105000   305.27169      286.57643      284.76586      32.786953     -32.140695      1.8105683     -8.0628206    
    106000   300.49246      313.56213      297.0797       32.633598     -32.253789      16.482425     -7.8830289    
    107000   301.00156      281.44204      292.86626      32.853674     -32.669986     -11.424221     -7.7141134    
    108000   298.42953      289.62884      300.02795      32.825444     -33.334624     -10.399111     -7.6326176    
    109000   303.59529      307.3112       326.80757      33.354221     -33.889774     -19.496363     -7.2401796    
    110000   308.55334      308.84475      256.94727      32.937176     -34.822901      51.897476     -7.3410958    
    111000   301.15687      307.49458      294.00532      34.074257     -35.598088      13.489259     -7.0423667    
    112000   310.68443      337.46721      294.39111      33.57072      -36.878621      43.076105     -6.9438826    
    113000   303.64506      285.08449      319.69549      34.938872     -37.613237     -34.611007     -6.830318     
    114000   311.04657      325.46621      324.29369      36.049092     -38.188489      1.1725206     -7.2063687    
    115000   304.04997      284.84658      297.14345      37.178997     -38.809544     -12.296876     -7.0422425    
    116000   297.24185      308.99003      304.09818      38.627664     -38.864687      4.891856      -6.7729671    
    117000   307.73338      287.69006      341.25689      40.071627     -40.145016     -53.566834     -6.8864834    
    118000   298.59549      302.10587      280.05429      41.580387     -38.940573      22.051573     -7.1013612    
    119000   304.63113      333.93476      326.70256      41.444108     -39.74786       7.2322046     -6.9308813    
    120000   304.33631      311.1766       286.07743      41.729817     -39.610732      25.099171     -6.7353933    
    121000   305.18426      245.27865      297.90225      42.021282     -40.892729     -52.623594     -6.7823484    
    122000   298.07658      325.49066      265.62125      42.312616     -42.142253      59.869408     -6.8523962    
    123000   301.85485      277.33991      296.47664      42.455429     -42.395962     -19.136721     -6.9134607    
    124000   300.18024      370.02888      302.68773      41.624091     -41.153864      67.341154     -6.8393753    
    125000   302.76175      291.87033      304.40186      42.140542     -42.466088     -12.531531     -6.9018132    
    126000   295.14392      287.98667      244.80735      43.553713     -42.132084      43.17932      -6.7314296    
    127000   295.20845      279.57931      314.90011      43.664169     -43.476028     -35.320801     -6.6392616    
    128000   301.27727      300.42183      298.9745       45.740004     -44.577116      1.4473311     -6.815064     
    129000   292.41166      303.7547       293.16928      46.192963     -44.807743      10.585421     -7.0726316    
    130000   296.40652      330.4642       321.26647      47.038012     -45.448843      9.1977299     -7.074464     
    131000   292.19437      313.44869      259.52358      48.002327     -46.665981      53.925112     -6.7850985    
    132000   295.14714      262.64111      301.66865      48.832758     -47.412189     -39.02754      -6.8792275    
    133000   298.46739      304.02503      346.55754      48.902876     -46.609074     -42.532511     -6.9824746    
    134000   292.17736      310.17089      283.58118      48.69053      -46.523199      26.589705     -7.0487272    
    135000   293.68364      279.51114      327.59869      49.402022     -47.605367     -48.087555     -7.1445816    
    136000   296.53838      310.42845      304.50174      49.969179     -48.994009      5.9267117     -7.3148879    
    137000   301.33557      285.02333      320.09334      49.756132     -48.473983     -35.070015     -7.2491439    
    138000   293.26248      294.35512      266.67308      49.531917     -48.161724      27.68204      -7.1980715    
    139000   294.26917      310.88213      294.12501      52.047045     -49.637014      16.757122     -6.8931802    
    140000   296.18857      322.86157      271.92627      52.879897     -49.536972      50.9353       -6.6691666    
    141000   301.21453      303.35315      317.2285       53.493357     -51.159851     -13.875356     -6.7698677    
    142000   287.66476      274.50428      267.01736      55.048717     -51.455157      7.4869235     -6.9487599    
    143000   295.65549      299.10415      314.99359      55.074091     -53.626742     -15.88944      -7.0551824    
    144000   294.03144      296.88659      287.39106      55.242608     -54.31799       9.4955368     -7.109453     
    145000   300.99311      294.92125      332.81887      55.876647     -54.886302     -37.897618     -7.1989061    
    146000   303.80766      294.89991      294.55674      56.029096     -55.666961      0.34317203    -7.3608887    
    147000   294.72196      297.17165      285.45296      57.084033     -55.150761      11.718684     -7.5239038    
    148000   300.96645      309.31615      294.6666       56.997221     -55.509115      14.64955      -7.6598273    
    149000   305.53743      315.26408      286.01305      57.297334     -57.211906      29.25103      -7.6809961    
    150000   308.14644      298.68565      309.3691       57.47385      -58.66834      -10.683447     -7.651704     
Loop time of 25.5478 on 24 procs for 100000 steps with 1804 atoms

Performance: 169.095 ns/day, 0.142 hours/ns, 3914.238 timesteps/s, 7.061 Matom-step/s
91.2% CPU use with 24 MPI tasks x 1 OpenMP threads

MPI task timing breakdown:
Section |  min time  |  avg time  |  max time  |%varavg| %total
---------------------------------------------------------------
Pair    | 13.546     | 16.372     | 18.642     |  31.7 | 64.08
Neigh   | 0.000823   | 0.00096237 | 0.0011     |   0.0 |  0.00
Comm    | 5.9756     | 8.2122     | 11.044     |  44.7 | 32.14
Output  | 0.002838   | 0.01205    | 0.01247    |   1.7 |  0.05
Modify  | 0.21479    | 0.26006    | 0.34994    |   8.4 |  1.02
Other   |            | 0.6909     |            |       |  2.70

Nlocal:        75.1667 ave          91 max          60 min
Histogram: 4 3 4 1 0 0 3 1 6 2
Nghost:        261.125 ave         298 max         226 min
Histogram: 4 2 2 2 1 2 5 2 1 3
Neighs:              0 ave           0 max           0 min
Histogram: 24 0 0 0 0 0 0 0 0 0
FullNghs:         1353 ave        1638 max        1080 min
Histogram: 4 3 4 1 0 0 3 1 6 2

Total # of neighbors = 32472
Ave neighs/atom = 18
Neighbor list builds = 20
Dangerous builds = 0






Total wall time: 0:00:40
