 # C nanotube of type armchair (11,11); radius: 7.500 A..
  
        1804  atoms
           1  atom types
 
      0.000000000000      30.001664500000  xlo xhi
      0.000000000000      25.982203610000  ylo yhi
      0.000000000000     101.413500000000  zlo zhi
     15.000832250000       0.000000000000       0.000000000000  xy xz yz
 
Masses
 
            1   12.01100000             # C
 
Atoms # atomic
 
         1    1       30.001664500000      12.991101805000       0.000000000000
         2    1       29.866122230080      14.410564930308       0.000000000000
         3    1       29.697844844008      15.104213119194       1.236750000000
         4    1       29.167884041647      16.427991323446       1.236750000000
         5    1       28.810999841621      17.046132890243       0.000000000000
         6    1       27.929554688819      18.166981510173       0.000000000000
         7    1       27.412976428925      18.659538095822       1.236750000000
         8    1       26.251456437500      19.486652707500       1.236750000000
         9    1       25.617033739567      19.813720324051       0.000000000000
        10    1       24.269538680197      20.280093084190       0.000000000000
        11    1       23.568668895763      20.415174560758       1.236750000000
        12    1       22.144364174974      20.483022408689       1.236750000000
        13    1       21.433827854237      20.415174560758       0.000000000000
        14    1       20.048102573845      20.079001221130       0.000000000000
        15    1       19.385463010433      19.813720324051       1.236750000000
        16    1       18.150580098814      19.100760342688       1.236750000000
        17    1       17.589520321075      18.659538095822       0.000000000000
        18    1       16.605523028654      17.627551470280       0.000000000000
        19    1       16.191496908379      17.046132890243       1.236750000000
        20    1       15.538102507891      15.778724895478       1.236750000000
        21    1       15.304651605975      15.104213119194       0.000000000000
        22    1       15.034794734247      13.704061786364       0.000000000000
        23    1       15.000832250000      12.991101805000       1.236750000000
        24    1       15.136374519920      11.571638679692       1.236750000000
        25    1       15.304651905992      10.877990490806       0.000000000000
        26    1       15.834612708353       9.554212286554       0.000000000000
        27    1       16.191496908379       8.936070719757       1.236750000000
        28    1       17.072942061181       7.815222099827       1.236750000000
        29    1       17.589520321075       7.322665514178       0.000000000000
        30    1       18.751040312500       6.495550902500       0.000000000000
        31    1       19.385463010433       6.168483285949       1.236750000000
        32    1       20.732958069803       5.702110525810       1.236750000000
        33    1       21.433827854237       5.567029049242       0.000000000000
        34    1       22.858132575026       5.499181201311       0.000000000000
        35    1       23.568668895763       5.567029049242       1.236750000000
        36    1       24.954394176155       5.903202388870       1.236750000000
        37    1       25.617033739567       6.168483285949       0.000000000000
        38    1       26.851916651186       6.881443267312       0.000000000000
        39    1       27.412976428925       7.322665514178       1.236750000000
        40    1       28.396973721346       8.354652139720       1.236750000000
        41    1       28.810999841621       8.936070719757       0.000000000000
        42    1       29.464394242109      10.203478714522       0.000000000000
        43    1       29.697845144025      10.877990490806       1.236750000000
        44    1       29.967702015753      12.278141823636       1.236750000000
        45    1       30.001664500000      12.991101805000       2.473500000000
        46    1       29.866122230080      14.410564930308       2.473500000000
        47    1       29.697844844008      15.104213119194       3.710250000000
        48    1       29.167884041647      16.427991323446       3.710250000000
        49    1       28.810999841621      17.046132890243       2.473500000000
        50    1       27.929554688819      18.166981510173       2.473500000000
        51    1       27.412976428925      18.659538095822       3.710250000000
        52    1       26.251456437500      19.486652707500       3.710250000000
        53    1       25.617033739567      19.813720324051       2.473500000000
        54    1       24.269538680197      20.280093084190       2.473500000000
        55    1       23.568668895763      20.415174560758       3.710250000000
        56    1       22.144364174974      20.483022408689       3.710250000000
        57    1       21.433827854237      20.415174560758       2.473500000000
        58    1       20.048102573845      20.079001221130       2.473500000000
        59    1       19.385463010433      19.813720324051       3.710250000000
        60    1       18.150580098814      19.100760342688       3.710250000000
        61    1       17.589520321075      18.659538095822       2.473500000000
        62    1       16.605523028654      17.627551470280       2.473500000000
        63    1       16.191496908379      17.046132890243       3.710250000000
        64    1       15.538102507891      15.778724895478       3.710250000000
        65    1       15.304651605975      15.104213119194       2.473500000000
        66    1       15.034794734247      13.704061786364       2.473500000000
        67    1       15.000832250000      12.991101805000       3.710250000000
        68    1       15.136374519920      11.571638679692       3.710250000000
        69    1       15.304651905992      10.877990490806       2.473500000000
        70    1       15.834612708353       9.554212286554       2.473500000000
        71    1       16.191496908379       8.936070719757       3.710250000000
        72    1       17.072942061181       7.815222099827       3.710250000000
        73    1       17.589520321075       7.322665514178       2.473500000000
        74    1       18.751040312500       6.495550902500       2.473500000000
        75    1       19.385463010433       6.168483285949       3.710250000000
        76    1       20.732958069803       5.702110525810       3.710250000000
        77    1       21.433827854237       5.567029049242       2.473500000000
        78    1       22.858132575026       5.499181201311       2.473500000000
        79    1       23.568668895763       5.567029049242       3.710250000000
        80    1       24.954394176155       5.903202388870       3.710250000000
        81    1       25.617033739567       6.168483285949       2.473500000000
        82    1       26.851916651186       6.881443267312       2.473500000000
        83    1       27.412976428925       7.322665514178       3.710250000000
        84    1       28.396973721346       8.354652139720       3.710250000000
        85    1       28.810999841621       8.936070719757       2.473500000000
        86    1       29.464394242109      10.203478714522       2.473500000000
        87    1       29.697845144025      10.877990490806       3.710250000000
        88    1       29.967702015753      12.278141823636       3.710250000000
        89    1       30.001664500000      12.991101805000       4.947000000000
        90    1       29.866122230080      14.410564930308       4.947000000000
        91    1       29.697844844008      15.104213119194       6.183750000000
        92    1       29.167884041647      16.427991323446       6.183750000000
        93    1       28.810999841621      17.046132890243       4.947000000000
        94    1       27.929554688819      18.166981510173       4.947000000000
        95    1       27.412976428925      18.659538095822       6.183750000000
        96    1       26.251456437500      19.486652707500       6.183750000000
        97    1       25.617033739567      19.813720324051       4.947000000000
        98    1       24.269538680197      20.280093084190       4.947000000000
        99    1       23.568668895763      20.415174560758       6.183750000000
       100    1       22.144364174974      20.483022408689       6.183750000000
       101    1       21.433827854237      20.415174560758       4.947000000000
       102    1       20.048102573845      20.079001221130       4.947000000000
       103    1       19.385463010433      19.813720324051       6.183750000000
       104    1       18.150580098814      19.100760342688       6.183750000000
       105    1       17.589520321075      18.659538095822       4.947000000000
       106    1       16.605523028654      17.627551470280       4.947000000000
       107    1       16.191496908379      17.046132890243       6.183750000000
       108    1       15.538102507891      15.778724895478       6.183750000000
       109    1       15.304651605975      15.104213119194       4.947000000000
       110    1       15.034794734247      13.704061786364       4.947000000000
       111    1       15.000832250000      12.991101805000       6.183750000000
       112    1       15.136374519920      11.571638679692       6.183750000000
       113    1       15.304651905992      10.877990490806       4.947000000000
       114    1       15.834612708353       9.554212286554       4.947000000000
       115    1       16.191496908379       8.936070719757       6.183750000000
       116    1       17.072942061181       7.815222099827       6.183750000000
       117    1       17.589520321075       7.322665514178       4.947000000000
       118    1       18.751040312500       6.495550902500       4.947000000000
       119    1       19.385463010433       6.168483285949       6.183750000000
       120    1       20.732958069803       5.702110525810       6.183750000000
       121    1       21.433827854237       5.567029049242       4.947000000000
       122    1       22.858132575026       5.499181201311       4.947000000000
       123    1       23.568668895763       5.567029049242       6.183750000000
       124    1       24.954394176155       5.903202388870       6.183750000000
       125    1       25.617033739567       6.168483285949       4.947000000000
       126    1       26.851916651186       6.881443267312       4.947000000000
       127    1       27.412976428925       7.322665514178       6.183750000000
       128    1       28.396973721346       8.354652139720       6.183750000000
       129    1       28.810999841621       8.936070719757       4.947000000000
       130    1       29.464394242109      10.203478714522       4.947000000000
       131    1       29.697845144025      10.877990490806       6.183750000000
       132    1       29.967702015753      12.278141823636       6.183750000000
       133    1       30.001664500000      12.991101805000       7.420500000000
       134    1       29.866122230080      14.410564930308       7.420500000000
       135    1       29.697844844008      15.104213119194       8.657250000000
       136    1       29.167884041647      16.427991323446       8.657250000000
       137    1       28.810999841621      17.046132890243       7.420500000000
       138    1       27.929554688819      18.166981510173       7.420500000000
       139    1       27.412976428925      18.659538095822       8.657250000000
       140    1       26.251456437500      19.486652707500       8.657250000000
       141    1       25.617033739567      19.813720324051       7.420500000000
       142    1       24.269538680197      20.280093084190       7.420500000000
       143    1       23.568668895763      20.415174560758       8.657250000000
       144    1       22.144364174974      20.483022408689       8.657250000000
       145    1       21.433827854237      20.415174560758       7.420500000000
       146    1       20.048102573845      20.079001221130       7.420500000000
       147    1       19.385463010433      19.813720324051       8.657250000000
       148    1       18.150580098814      19.100760342688       8.657250000000
       149    1       17.589520321075      18.659538095822       7.420500000000
       150    1       16.605523028654      17.627551470280       7.420500000000
       151    1       16.191496908379      17.046132890243       8.657250000000
       152    1       15.538102507891      15.778724895478       8.657250000000
       153    1       15.304651605975      15.104213119194       7.420500000000
       154    1       15.034794734247      13.704061786364       7.420500000000
       155    1       15.000832250000      12.991101805000       8.657250000000
       156    1       15.136374519920      11.571638679692       8.657250000000
       157    1       15.304651905992      10.877990490806       7.420500000000
       158    1       15.834612708353       9.554212286554       7.420500000000
       159    1       16.191496908379       8.936070719757       8.657250000000
       160    1       17.072942061181       7.815222099827       8.657250000000
       161    1       17.589520321075       7.322665514178       7.420500000000
       162    1       18.751040312500       6.495550902500       7.420500000000
       163    1       19.385463010433       6.168483285949       8.657250000000
       164    1       20.732958069803       5.702110525810       8.657250000000
       165    1       21.433827854237       5.567029049242       7.420500000000
       166    1       22.858132575026       5.499181201311       7.420500000000
       167    1       23.568668895763       5.567029049242       8.657250000000
       168    1       24.954394176155       5.903202388870       8.657250000000
       169    1       25.617033739567       6.168483285949       7.420500000000
       170    1       26.851916651186       6.881443267312       7.420500000000
       171    1       27.412976428925       7.322665514178       8.657250000000
       172    1       28.396973721346       8.354652139720       8.657250000000
       173    1       28.810999841621       8.936070719757       7.420500000000
       174    1       29.464394242109      10.203478714522       7.420500000000
       175    1       29.697845144025      10.877990490806       8.657250000000
       176    1       29.967702015753      12.278141823636       8.657250000000
       177    1       30.001664500000      12.991101805000       9.894000000000
       178    1       29.866122230080      14.410564930308       9.894000000000
       179    1       29.697844844008      15.104213119194      11.130750000000
       180    1       29.167884041647      16.427991323446      11.130750000000
       181    1       28.810999841621      17.046132890243       9.894000000000
       182    1       27.929554688819      18.166981510173       9.894000000000
       183    1       27.412976428925      18.659538095822      11.130750000000
       184    1       26.251456437500      19.486652707500      11.130750000000
       185    1       25.617033739567      19.813720324051       9.894000000000
       186    1       24.269538680197      20.280093084190       9.894000000000
       187    1       23.568668895763      20.415174560758      11.130750000000
       188    1       22.144364174974      20.483022408689      11.130750000000
       189    1       21.433827854237      20.415174560758       9.894000000000
       190    1       20.048102573845      20.079001221130       9.894000000000
       191    1       19.385463010433      19.813720324051      11.130750000000
       192    1       18.150580098814      19.100760342688      11.130750000000
       193    1       17.589520321075      18.659538095822       9.894000000000
       194    1       16.605523028654      17.627551470280       9.894000000000
       195    1       16.191496908379      17.046132890243      11.130750000000
       196    1       15.538102507891      15.778724895478      11.130750000000
       197    1       15.304651605975      15.104213119194       9.894000000000
       198    1       15.034794734247      13.704061786364       9.894000000000
       199    1       15.000832250000      12.991101805000      11.130750000000
       200    1       15.136374519920      11.571638679692      11.130750000000
       201    1       15.304651905992      10.877990490806       9.894000000000
       202    1       15.834612708353       9.554212286554       9.894000000000
       203    1       16.191496908379       8.936070719757      11.130750000000
       204    1       17.072942061181       7.815222099827      11.130750000000
       205    1       17.589520321075       7.322665514178       9.894000000000
       206    1       18.751040312500       6.495550902500       9.894000000000
       207    1       19.385463010433       6.168483285949      11.130750000000
       208    1       20.732958069803       5.702110525810      11.130750000000
       209    1       21.433827854237       5.567029049242       9.894000000000
       210    1       22.858132575026       5.499181201311       9.894000000000
       211    1       23.568668895763       5.567029049242      11.130750000000
       212    1       24.954394176155       5.903202388870      11.130750000000
       213    1       25.617033739567       6.168483285949       9.894000000000
       214    1       26.851916651186       6.881443267312       9.894000000000
       215    1       27.412976428925       7.322665514178      11.130750000000
       216    1       28.396973721346       8.354652139720      11.130750000000
       217    1       28.810999841621       8.936070719757       9.894000000000
       218    1       29.464394242109      10.203478714522       9.894000000000
       219    1       29.697845144025      10.877990490806      11.130750000000
       220    1       29.967702015753      12.278141823636      11.130750000000
       221    1       30.001664500000      12.991101805000      12.367500000000
       222    1       29.866122230080      14.410564930308      12.367500000000
       223    1       29.697844844008      15.104213119194      13.604250000000
       224    1       29.167884041647      16.427991323446      13.604250000000
       225    1       28.810999841621      17.046132890243      12.367500000000
       226    1       27.929554688819      18.166981510173      12.367500000000
       227    1       27.412976428925      18.659538095822      13.604250000000
       228    1       26.251456437500      19.486652707500      13.604250000000
       229    1       25.617033739567      19.813720324051      12.367500000000
       230    1       24.269538680197      20.280093084190      12.367500000000
       231    1       23.568668895763      20.415174560758      13.604250000000
       232    1       22.144364174974      20.483022408689      13.604250000000
       233    1       21.433827854237      20.415174560758      12.367500000000
       234    1       20.048102573845      20.079001221130      12.367500000000
       235    1       19.385463010433      19.813720324051      13.604250000000
       236    1       18.150580098814      19.100760342688      13.604250000000
       237    1       17.589520321075      18.659538095822      12.367500000000
       238    1       16.605523028654      17.627551470280      12.367500000000
       239    1       16.191496908379      17.046132890243      13.604250000000
       240    1       15.538102507891      15.778724895478      13.604250000000
       241    1       15.304651605975      15.104213119194      12.367500000000
       242    1       15.034794734247      13.704061786364      12.367500000000
       243    1       15.000832250000      12.991101805000      13.604250000000
       244    1       15.136374519920      11.571638679692      13.604250000000
       245    1       15.304651905992      10.877990490806      12.367500000000
       246    1       15.834612708353       9.554212286554      12.367500000000
       247    1       16.191496908379       8.936070719757      13.604250000000
       248    1       17.072942061181       7.815222099827      13.604250000000
       249    1       17.589520321075       7.322665514178      12.367500000000
       250    1       18.751040312500       6.495550902500      12.367500000000
       251    1       19.385463010433       6.168483285949      13.604250000000
       252    1       20.732958069803       5.702110525810      13.604250000000
       253    1       21.433827854237       5.567029049242      12.367500000000
       254    1       22.858132575026       5.499181201311      12.367500000000
       255    1       23.568668895763       5.567029049242      13.604250000000
       256    1       24.954394176155       5.903202388870      13.604250000000
       257    1       25.617033739567       6.168483285949      12.367500000000
       258    1       26.851916651186       6.881443267312      12.367500000000
       259    1       27.412976428925       7.322665514178      13.604250000000
       260    1       28.396973721346       8.354652139720      13.604250000000
       261    1       28.810999841621       8.936070719757      12.367500000000
       262    1       29.464394242109      10.203478714522      12.367500000000
       263    1       29.697845144025      10.877990490806      13.604250000000
       264    1       29.967702015753      12.278141823636      13.604250000000
       265    1       30.001664500000      12.991101805000      14.841000000000
       266    1       29.866122230080      14.410564930308      14.841000000000
       267    1       29.697844844008      15.104213119194      16.077750000000
       268    1       29.167884041647      16.427991323446      16.077750000000
       269    1       28.810999841621      17.046132890243      14.841000000000
       270    1       27.929554688819      18.166981510173      14.841000000000
       271    1       27.412976428925      18.659538095822      16.077750000000
       272    1       26.251456437500      19.486652707500      16.077750000000
       273    1       25.617033739567      19.813720324051      14.841000000000
       274    1       24.269538680197      20.280093084190      14.841000000000
       275    1       23.568668895763      20.415174560758      16.077750000000
       276    1       22.144364174974      20.483022408689      16.077750000000
       277    1       21.433827854237      20.415174560758      14.841000000000
       278    1       20.048102573845      20.079001221130      14.841000000000
       279    1       19.385463010433      19.813720324051      16.077750000000
       280    1       18.150580098814      19.100760342688      16.077750000000
       281    1       17.589520321075      18.659538095822      14.841000000000
       282    1       16.605523028654      17.627551470280      14.841000000000
       283    1       16.191496908379      17.046132890243      16.077750000000
       284    1       15.538102507891      15.778724895478      16.077750000000
       285    1       15.304651605975      15.104213119194      14.841000000000
       286    1       15.034794734247      13.704061786364      14.841000000000
       287    1       15.000832250000      12.991101805000      16.077750000000
       288    1       15.136374519920      11.571638679692      16.077750000000
       289    1       15.304651905992      10.877990490806      14.841000000000
       290    1       15.834612708353       9.554212286554      14.841000000000
       291    1       16.191496908379       8.936070719757      16.077750000000
       292    1       17.072942061181       7.815222099827      16.077750000000
       293    1       17.589520321075       7.322665514178      14.841000000000
       294    1       18.751040312500       6.495550902500      14.841000000000
       295    1       19.385463010433       6.168483285949      16.077750000000
       296    1       20.732958069803       5.702110525810      16.077750000000
       297    1       21.433827854237       5.567029049242      14.841000000000
       298    1       22.858132575026       5.499181201311      14.841000000000
       299    1       23.568668895763       5.567029049242      16.077750000000
       300    1       24.954394176155       5.903202388870      16.077750000000
       301    1       25.617033739567       6.168483285949      14.841000000000
       302    1       26.851916651186       6.881443267312      14.841000000000
       303    1       27.412976428925       7.322665514178      16.077750000000
       304    1       28.396973721346       8.354652139720      16.077750000000
       305    1       28.810999841621       8.936070719757      14.841000000000
       306    1       29.464394242109      10.203478714522      14.841000000000
       307    1       29.697845144025      10.877990490806      16.077750000000
       308    1       29.967702015753      12.278141823636      16.077750000000
       309    1       30.001664500000      12.991101805000      17.314500000000
       310    1       29.866122230080      14.410564930308      17.314500000000
       311    1       29.697844844008      15.104213119194      18.551250000000
       312    1       29.167884041647      16.427991323446      18.551250000000
       313    1       28.810999841621      17.046132890243      17.314500000000
       314    1       27.929554688819      18.166981510173      17.314500000000
       315    1       27.412976428925      18.659538095822      18.551250000000
       316    1       26.251456437500      19.486652707500      18.551250000000
       317    1       25.617033739567      19.813720324051      17.314500000000
       318    1       24.269538680197      20.280093084190      17.314500000000
       319    1       23.568668895763      20.415174560758      18.551250000000
       320    1       22.144364174974      20.483022408689      18.551250000000
       321    1       21.433827854237      20.415174560758      17.314500000000
       322    1       20.048102573845      20.079001221130      17.314500000000
       323    1       19.385463010433      19.813720324051      18.551250000000
       324    1       18.150580098814      19.100760342688      18.551250000000
       325    1       17.589520321075      18.659538095822      17.314500000000
       326    1       16.605523028654      17.627551470280      17.314500000000
       327    1       16.191496908379      17.046132890243      18.551250000000
       328    1       15.538102507891      15.778724895478      18.551250000000
       329    1       15.304651605975      15.104213119194      17.314500000000
       330    1       15.034794734247      13.704061786364      17.314500000000
       331    1       15.000832250000      12.991101805000      18.551250000000
       332    1       15.136374519920      11.571638679692      18.551250000000
       333    1       15.304651905992      10.877990490806      17.314500000000
       334    1       15.834612708353       9.554212286554      17.314500000000
       335    1       16.191496908379       8.936070719757      18.551250000000
       336    1       17.072942061181       7.815222099827      18.551250000000
       337    1       17.589520321075       7.322665514178      17.314500000000
       338    1       18.751040312500       6.495550902500      17.314500000000
       339    1       19.385463010433       6.168483285949      18.551250000000
       340    1       20.732958069803       5.702110525810      18.551250000000
       341    1       21.433827854237       5.567029049242      17.314500000000
       342    1       22.858132575026       5.499181201311      17.314500000000
       343    1       23.568668895763       5.567029049242      18.551250000000
       344    1       24.954394176155       5.903202388870      18.551250000000
       345    1       25.617033739567       6.168483285949      17.314500000000
       346    1       26.851916651186       6.881443267312      17.314500000000
       347    1       27.412976428925       7.322665514178      18.551250000000
       348    1       28.396973721346       8.354652139720      18.551250000000
       349    1       28.810999841621       8.936070719757      17.314500000000
       350    1       29.464394242109      10.203478714522      17.314500000000
       351    1       29.697845144025      10.877990490806      18.551250000000
       352    1       29.967702015753      12.278141823636      18.551250000000
       353    1       30.001664500000      12.991101805000      19.788000000000
       354    1       29.866122230080      14.410564930308      19.788000000000
       355    1       29.697844844008      15.104213119194      21.024750000000
       356    1       29.167884041647      16.427991323446      21.024750000000
       357    1       28.810999841621      17.046132890243      19.788000000000
       358    1       27.929554688819      18.166981510173      19.788000000000
       359    1       27.412976428925      18.659538095822      21.024750000000
       360    1       26.251456437500      19.486652707500      21.024750000000
       361    1       25.617033739567      19.813720324051      19.788000000000
       362    1       24.269538680197      20.280093084190      19.788000000000
       363    1       23.568668895763      20.415174560758      21.024750000000
       364    1       22.144364174974      20.483022408689      21.024750000000
       365    1       21.433827854237      20.415174560758      19.788000000000